********************************************************************************
*                       GENERAL UTILITY LATTICE PROGRAM                        *
*                                 Julian Gale                                  *
*                       Curtin Institute for Computation                       *
*                    School of Molecular and Life Sciences                     *
*                    Curtin University, Western Australia                      *
********************************************************************************
* Version = 6.1.0 * Last modified =   8th July 2022                            *
********************************************************************************
*  optimise     - perform optimisation run                                     *
*  conp         - constant pressure calculation                                *
*  property     - calculate properties for final geometry                      *
*  phonon       - calculate phonons for final geometry                         *
*  include_imag - include imaginary frequencies in DOS and disperion output    *
*  intensity    - calculate phonon eigenvectors and estimate IR intensities    *
*  raman        - calculate Raman susceptibility                               *
*  potential    - calculate electrostatic site potentials                      *
*  distance     - calculate distances                                          *
*  nofrequency  - suppress frequency output after phonon calculation           *
********************************************************************************
* prueba optimizacion Si                                                       *
********************************************************************************


  Job Started  at 13:16.24 25th July       2022                               

  Number of CPUs =     1


  Total number of configurations input =      1

********************************************************************************
*  Input for Configuration =   1                                               *
********************************************************************************

  Formula = Si2                                                         

  Number of irreducible atoms/shells =       2


  Total number atoms/shells =       2

  Dimensionality = 3               :  Bulk   


  Symmetry :

  Crystal family                   :  Cubic       
  Crystal class  (Groth - 1921)    :  Cubic Hexakistetrahedral             

  Space group (noncentrosymmetric) :  F -4 3 M        

  Patterson group                  :  F m -3 m 

  Cartesian lattice vectors (Angstroms) :

        0.000000    2.700000    2.700000
        2.700000    0.000000    2.700000
        2.700000    2.700000    0.000000

  Primitive cell parameters :            Full cell parameters :

  a =   3.8184    alpha =  60.0000       a =   5.4000    alpha =  90.0000
  b =   3.8184    beta  =  60.0000       b =   5.4000    beta  =  90.0000
  c =   3.8184    gamma =  60.0000       c =   5.4000    gamma =  90.0000

  Initial volumes (Angstroms**3):

  Primitive cell =          39.366000    Full cell =         157.464000

  Temperature of configuration =   0.00     K 

  Pressure of configuration =         0.000 GPa 

  Fractional coordinates of asymmetric unit :

--------------------------------------------------------------------------------
   No.  Atomic       x           y          z         Charge      Occupancy
        Label      (Frac)      (Frac)     (Frac)        (e)         (Frac)  
--------------------------------------------------------------------------------
      1 Si    c    0.000000    0.000000    0.000000     0.00000    1.000000    
      2 Si    c    0.250000    0.250000    0.250000     0.00000    1.000000    
--------------------------------------------------------------------------------


  Constraints : 

--------------------------------------------------------------------------------
  Constraint no.      Unconstrained     Constrained    Coefficient    Offset
                         Variable         Variable
--------------------------------------------------------------------------------
           1              Strain 1        Strain 2       1.00000      0.0000
           2              Strain 1        Strain 3       1.00000      0.0000
--------------------------------------------------------------------------------


  Distance calculation :


  Cutoff for distances  =      2.000000 Angstroms

--------------------------------------------------------------------------------
  Asymmetric unit site  Full lattice sites    No.  Distance      No.  Distance
      No.   At.No.            At.No.                (Angs)             (Angs) 
--------------------------------------------------------------------------------


  Brillouin zone sampling points :

--------------------------------------------------------------------------------
  Point number          x          y          z            Weight
--------------------------------------------------------------------------------
        1           0.000000   0.000000   0.000000     1.00000000
--------------------------------------------------------------------------------


********************************************************************************
*  General input information                                                   *
********************************************************************************

  Species output for all configurations : 

--------------------------------------------------------------------------------
  Species    Type    Atomic    Atomic    Charge       Radii (Angs)     Library
                     Number     Mass       (e)     Cova   Ionic  VDW   Symbol
--------------------------------------------------------------------------------
    Si       Core       14      28.09   0.000000   1.200  0.000  2.100          
--------------------------------------------------------------------------------


  Lattice summation method               =    Ewald          (3-D)
                                         =    Parry          (2-D)
                                         =    Saunders et al (1-D)
  Accuracy factor for lattice sums       =   12.000


  Analytic derivatives to be used

  Time limit = Infinity

  Maximum range for interatomic potentials =    100000.000000 Angstroms

  General interatomic potentials :

--------------------------------------------------------------------------------
Atom  Types   Potential      Parameter       Value         Units   Cutoffs(Ang)
  1     2                                                            Min /  Max 
--------------------------------------------------------------------------------
Si   c Si   c Still-Weber 2 SW2 A            15.284982    eV        0.000  3.771
                            SW2 rho          2.0951000    Ang       
                            SW2 B            11.603192    Ang^4     
--------------------------------------------------------------------------------

  General Three-body potentials :

--------------------------------------------------------------------------------
  Atoms       Potential      Parameter       Value         Units   Cutoffs(Ang)
  1 / 2 / 3                                                          Min /  Max 
--------------------------------------------------------------------------------
Si    core    StillingerWeb Three-body cnst  45.532601    eV        0.000  3.771
Si    core                  Three-body angl  109.47000    degrees   0.000  3.771
Si    core                  Three-body rho1  2.5141200    Ang       0.000  7.542
                            Three-body rho2  2.5141200    Ang       
--------------------------------------------------------------------------------

********************************************************************************
*  Output for configuration   1                                                *
********************************************************************************


  Components of energy : 

--------------------------------------------------------------------------------
  Interatomic potentials     =          -8.66913035 eV    
  Three-body potentials      =           0.00000001 eV    
  Monopole - monopole (real) =           0.00000000 eV    
  Monopole - monopole (recip)=           0.00000000 eV    
  Monopole - monopole (total)=           0.00000000 eV    
--------------------------------------------------------------------------------
  Total lattice energy : 
    Primitive unit cell      =          -8.66913034 eV    
    Non-primitive unit cell  =         -34.67652135 eV    
--------------------------------------------------------------------------------
  Total lattice energy (in kJmol-1): 
    Primitive unit cell      =            -836.4386 kJ/(mole unit cells)
    Non-primitive unit cell  =           -3345.7542 kJ/(mole unit cells)
--------------------------------------------------------------------------------


  Number of variables =        1

  Maximum number of calculations  =          1000
  Maximum Hessian update interval =            10
  Maximum step size               =   1.000000000
  Maximum parameter tolerance     =   0.000010000
  Maximum function  tolerance     =   0.000010000
  Maximum gradient  tolerance     =   0.001000000
  Maximum gradient  component     =   0.010000000

  Symmetry constrained optimisation

  Symmetry used for second derivatives

  Cell parameters to be optimised using strains

  Newton-Raphson optimiser to be used

  BFGS hessian update to be used

  Lower half triangular hessian to be used

  Start of bulk optimisation :

  Cycle:      0 Energy:        -8.669130  Gnorm:      1.314308  CPU:    0.006
  ** Hessian calculated **
  Cycle:      1 Energy:        -8.672876  Gnorm:      0.002788  CPU:    0.007


  **** Optimisation achieved ****


  Final energy =      -8.67287607 eV      
  Final Gnorm  =       0.00000003

  Components of energy : 

--------------------------------------------------------------------------------
  Interatomic potentials     =          -8.67287608 eV    
  Three-body potentials      =           0.00000001 eV    
  Monopole - monopole (real) =           0.00000000 eV    
  Monopole - monopole (recip)=           0.00000000 eV    
  Monopole - monopole (total)=           0.00000000 eV    
--------------------------------------------------------------------------------
  Total lattice energy : 
    Primitive unit cell      =          -8.67287607 eV    
    Non-primitive unit cell  =         -34.69150429 eV    
--------------------------------------------------------------------------------
  Total lattice energy (in kJmol-1): 
    Primitive unit cell      =            -836.8000 kJ/(mole unit cells)
    Non-primitive unit cell  =           -3347.1999 kJ/(mole unit cells)
--------------------------------------------------------------------------------

  Final asymmetric unit coordinates :

--------------------------------------------------------------------------------
   No.  Atomic        x           y           z         Radius
        Label       (Frac)      (Frac)      (Frac)       (Angs) 
--------------------------------------------------------------------------------
     1  Si    c     0.000000    0.000000    0.000000    0.000000
     2  Si    c     0.250000    0.250000    0.250000    0.000000
--------------------------------------------------------------------------------

  Final Cartesian lattice vectors (Angstroms) :

        0.000000    2.715475    2.715475
        2.715475    0.000000    2.715475
        2.715475    2.715475    0.000000


  Final cell parameters and derivatives :

--------------------------------------------------------------------------------
       a            3.840261 Angstrom     dE/de1(xx)     0.000000 eV/strain
       b            3.840261 Angstrom     dE/de2(yy)     0.000000 eV/strain
       c            3.840261 Angstrom     dE/de3(zz)     0.000000 eV/strain
       alpha       60.000000 Degrees      dE/de4(yz)     0.000000 eV/strain
       beta        60.000000 Degrees      dE/de5(xz)     0.000000 eV/strain
       gamma       60.000000 Degrees      dE/de6(xy)     0.000000 eV/strain
--------------------------------------------------------------------------------

  Primitive cell volume =            40.046759 Angs**3

  Density of cell =      2.329541 g/cm**3

  Non-primitive lattice parameters :

  a    =     5.430950  b   =     5.430950  c    =     5.430950
  alpha=    90.000000  beta=    90.000000  gamma=    90.000000

  Non-primitive cell volume =           160.187034 Angs**3


  Final internal derivatives :

--------------------------------------------------------------------------------
   No.  Atomic          a             b             c           Radius
        Label          (eV)          (eV)          (eV)        (eV/Angs)
--------------------------------------------------------------------------------
      1 Si    c       0.000000      0.000000      0.000000      0.000000
      2 Si    c       0.000000      0.000000      0.000000      0.000000
--------------------------------------------------------------------------------
  Maximum abs         0.000000      0.000000      0.000000      0.000000
--------------------------------------------------------------------------------


  Distance calculation :


  Cutoff for distances  =      2.000000 Angstroms

--------------------------------------------------------------------------------
  Asymmetric unit site  Full lattice sites    No.  Distance      No.  Distance
      No.   At.No.            At.No.                (Angs)             (Angs) 
--------------------------------------------------------------------------------




  Elastic Constant Matrix: (Units=GPa)

-------------------------------------------------------------------------------
  Indices      1         2         3         4         5         6    
-------------------------------------------------------------------------------
       1    151.4203   76.4200   76.4200   -0.0000    0.0000   -0.0000
       2     76.4200  151.4203   76.4200    0.0000    0.0000   -0.0000
       3     76.4200   76.4200  151.4203    0.0000    0.0000    0.0000
       4     -0.0000    0.0000    0.0000   56.4453    0.0000   -0.0000
       5      0.0000    0.0000    0.0000    0.0000   56.4453   -0.0000
       6     -0.0000   -0.0000    0.0000   -0.0000   -0.0000   56.4453
-------------------------------------------------------------------------------


  Elastic Compliance Matrix: (Units=1/GPa)

-------------------------------------------------------------------------------
  Indices      1         2         3         4         5         6    
-------------------------------------------------------------------------------
       1    0.009984 -0.003349 -0.003349  0.000000 -0.000000  0.000000
       2   -0.003349  0.009984 -0.003349 -0.000000  0.000000  0.000000
       3   -0.003349 -0.003349  0.009984 -0.000000 -0.000000 -0.000000
       4    0.000000 -0.000000 -0.000000  0.017716 -0.000000  0.000000
       5   -0.000000  0.000000 -0.000000 -0.000000  0.017716  0.000000
       6    0.000000  0.000000 -0.000000  0.000000  0.000000  0.017716
-------------------------------------------------------------------------------

  Mechanical properties :

-------------------------------------------------------------------------------
  Convention :                    Reuss         Voigt         Hill
-------------------------------------------------------------------------------
  Bulk  Modulus (GPa)     =     101.42006     101.42006     101.42006
  Shear Modulus (GPa)     =      46.95631      48.86721      47.91176
-------------------------------------------------------------------------------
  Velocity S-wave (km/s)  =       4.48964       4.58009       4.53509
  Velocity P-wave (km/s)  =       8.39121       8.45613       8.42373
-------------------------------------------------------------------------------
  Compressibility (1/GPa) =    0.00985998
-------------------------------------------------------------------------------
  Stress axis :                     x             y             z
-------------------------------------------------------------------------------
  Youngs Moduli (GPa)     =     100.15618     100.15618     100.15618
-------------------------------------------------------------------------------
  Poissons Ratio (x)      =                     0.33541       0.33541
  Poissons Ratio (y)      =       0.33541                     0.33541
  Poissons Ratio (z)      =       0.33541       0.33541
-------------------------------------------------------------------------------


  Piezoelectric Strain Matrix: (Units=C/m**2)

-------------------------------------------------------------------------------
  Indices      1         2         3         4         5         6    
-------------------------------------------------------------------------------
       x    -0.00000  -0.00000  -0.00000  -0.00000  -0.00000  -0.00000
       y    -0.00000  -0.00000  -0.00000  -0.00000  -0.00000  -0.00000
       z    -0.00000  -0.00000  -0.00000  -0.00000  -0.00000  -0.00000
-------------------------------------------------------------------------------


  Piezoelectric Stress Matrix: (Units=10**-11 C/N)

-------------------------------------------------------------------------------
  Indices      1         2         3         4         5         6    
-------------------------------------------------------------------------------
       x     0.00000   0.00000   0.00000   0.00000   0.00000   0.00000
       y     0.00000   0.00000   0.00000   0.00000   0.00000   0.00000
       z     0.00000   0.00000   0.00000   0.00000   0.00000   0.00000
-------------------------------------------------------------------------------


  Static dielectric constant tensor : 

-------------------------------------------------------------------------------
              x         y         z
-------------------------------------------------------------------------------
       x     1.00000   0.00000   0.00000
       y     0.00000   1.00000   0.00000
       z     0.00000   0.00000   1.00000
--------------------------------------------------------------------------------

  Static refractive indices : 

-------------------------------------------------------------------------------
    1 =    1.00000      2 =    1.00000      3 =    1.00000
-------------------------------------------------------------------------------


  Phonon Calculation : 

  Directions for Raman intensities: Type  =  Cartesian
                                    In    =  1.00000  1.00000  1.00000
                                    Out   =  1.00000  1.00000  1.00000

  Number of k points for this configuration =        1

--------------------------------------------------------------------------------

  Frequencies (cm-1) and IR/Raman Intensities : 

  Frequency      -0.0000    0.0000    0.0000  594.7735  594.7735  594.7735
  IR Intensity    0.0000    0.0000    0.0000    0.0000    0.0000    0.0000
     in X         0.0000    0.0000    0.0000    0.0000    0.0000    0.0000
     in Y         0.0000    0.0000    0.0000    0.0000    0.0000    0.0000
     in Z         0.0000    0.0000    0.0000    0.0000    0.0000    0.0000
  Raman Intsty    0.0000    0.0000    0.0000    0.0000    0.0000    0.0000



  Phonon properties (per mole of unit cells): Temperature =      0.000 K
--------------------------------------------------------------------------------
  Zero point energy             =        0.110615 eV
--------------------------------------------------------------------------------

  Phonon density of states : 

--------------------------------------------------------------------------------
 Frequency (cm-1) Density of States                                             
--------------------------------------------------------------------------------
   -0.00001 |************************************************************  0.500
    9.29333 |                                                              0.000
   18.58667 |                                                              0.000
   27.88001 |                                                              0.000
   37.17335 |                                                              0.000
   46.46668 |                                                              0.000
   55.76002 |                                                              0.000
   65.05336 |                                                              0.000
   74.34670 |                                                              0.000
   83.64003 |                                                              0.000
   92.93337 |                                                              0.000
  102.22671 |                                                              0.000
  111.52005 |                                                              0.000
  120.81338 |                                                              0.000
  130.10672 |                                                              0.000
  139.40006 |                                                              0.000
  148.69340 |                                                              0.000
  157.98674 |                                                              0.000
  167.28007 |                                                              0.000
  176.57341 |                                                              0.000
  185.86675 |                                                              0.000
  195.16009 |                                                              0.000
  204.45342 |                                                              0.000
  213.74676 |                                                              0.000
  223.04010 |                                                              0.000
  232.33344 |                                                              0.000
  241.62678 |                                                              0.000
  250.92011 |                                                              0.000
  260.21345 |                                                              0.000
  269.50679 |                                                              0.000
  278.80013 |                                                              0.000
  288.09346 |                                                              0.000
  297.38680 |                                                              0.000
  306.68014 |                                                              0.000
  315.97348 |                                                              0.000
  325.26682 |                                                              0.000
  334.56015 |                                                              0.000
  343.85349 |                                                              0.000
  353.14683 |                                                              0.000
  362.44017 |                                                              0.000
  371.73350 |                                                              0.000
  381.02684 |                                                              0.000
  390.32018 |                                                              0.000
  399.61352 |                                                              0.000
  408.90686 |                                                              0.000
  418.20019 |                                                              0.000
  427.49353 |                                                              0.000
  436.78687 |                                                              0.000
  446.08021 |                                                              0.000
  455.37354 |                                                              0.000
  464.66688 |                                                              0.000
  473.96022 |                                                              0.000
  483.25356 |                                                              0.000
  492.54690 |                                                              0.000
  501.84023 |                                                              0.000
  511.13357 |                                                              0.000
  520.42691 |                                                              0.000
  529.72025 |                                                              0.000
  539.01358 |                                                              0.000
  548.30692 |                                                              0.000
  557.60026 |                                                              0.000
  566.89360 |                                                              0.000
  576.18694 |                                                              0.000
  585.48027 |************************************************************  0.500
--------------------------------------------------------------------------------




  Phonon density of states written as Si.dens                                                                                                                 



  Time to end of optimisation =       0.0093 seconds



  Electrostatic potential at atomic positions :

-------------------------------------------------------------------------------
 Site  Atomic      Potential                Derivatives (V/Angs)
 No.   Label          (V)                 x           y           z
-------------------------------------------------------------------------------
     1 Si    c      0.000000           0.000000    0.000000    0.000000
     2 Si    c      0.000000           0.000000    0.000000    0.000000
-------------------------------------------------------------------------------

  Total time to end of atomic site potentials =       0.0096 s


  Peak dynamic memory used =       1.81 MB 


  Timing analysis for GULP :

--------------------------------------------------------------------------------
  Task / Subroutine                                          Time (Seconds)
--------------------------------------------------------------------------------
  Calculation of real space energy and derivatives                0.0002
  Calculation of real space energy using symmetry                 0.0011
  Calculation of three-body energy and derivatives                0.0005
  Calculation of phonons                                          0.0009
  Symmetry generation of equivalent positions                     0.0017
--------------------------------------------------------------------------------
  Total CPU time                                                  0.0096
--------------------------------------------------------------------------------


  Job Finished at 13:16.24 25th July       2022                               

