********************************************************************************
*                       GENERAL UTILITY LATTICE PROGRAM                        *
*                                 Julian Gale                                  *
*                       Curtin Institute for Computation                       *
*                    School of Molecular and Life Sciences                     *
*                    Curtin University, Western Australia                      *
********************************************************************************
* Version = 6.1.0 * Last modified =   8th July 2022                            *
********************************************************************************
*  optimise     - perform optimisation run                                     *
*  conp         - constant pressure calculation                                *
*  property     - calculate properties for final geometry                      *
********************************************************************************
* prueba optimizacion Si                                                       *
********************************************************************************


  Job Started  at 22:55.33 24th July       2022                               

  Number of CPUs =     1


  Total number of configurations input =      1

********************************************************************************
*  Input for Configuration =   1                                               *
********************************************************************************

  Formula = Si2                                                         

  Number of irreducible atoms/shells =       2


  Total number atoms/shells =       2

  Dimensionality = 3               :  Bulk   


  Symmetry :

  Crystal family                   :  Cubic       
  Crystal class  (Groth - 1921)    :  Cubic Hexakistetrahedral             

  Space group (noncentrosymmetric) :  F -4 3 M        

  Patterson group                  :  F m -3 m 

  Cartesian lattice vectors (Angstroms) :

        0.000000    2.700000    2.700000
        2.700000    0.000000    2.700000
        2.700000    2.700000    0.000000

  Primitive cell parameters :            Full cell parameters :

  a =   3.8184    alpha =  60.0000       a =   5.4000    alpha =  90.0000
  b =   3.8184    beta  =  60.0000       b =   5.4000    beta  =  90.0000
  c =   3.8184    gamma =  60.0000       c =   5.4000    gamma =  90.0000

  Initial volumes (Angstroms**3):

  Primitive cell =          39.366000    Full cell =         157.464000

  Temperature of configuration =   0.00     K 

  Pressure of configuration =         0.000 GPa 

  Fractional coordinates of asymmetric unit :

--------------------------------------------------------------------------------
   No.  Atomic       x           y          z         Charge      Occupancy
        Label      (Frac)      (Frac)     (Frac)        (e)         (Frac)  
--------------------------------------------------------------------------------
      1 Si    c    0.000000    0.000000    0.000000     0.00000    1.000000    
      2 Si    c    0.250000    0.250000    0.250000     0.00000    1.000000    
--------------------------------------------------------------------------------


  Constraints : 

--------------------------------------------------------------------------------
  Constraint no.      Unconstrained     Constrained    Coefficient    Offset
                         Variable         Variable
--------------------------------------------------------------------------------
           1              Strain 1        Strain 2       1.00000      0.0000
           2              Strain 1        Strain 3       1.00000      0.0000
--------------------------------------------------------------------------------


********************************************************************************
*  General input information                                                   *
********************************************************************************

  Species output for all configurations : 

--------------------------------------------------------------------------------
  Species    Type    Atomic    Atomic    Charge       Radii (Angs)     Library
                     Number     Mass       (e)     Cova   Ionic  VDW   Symbol
--------------------------------------------------------------------------------
    Si       Core       14      28.09   0.000000   1.200  0.000  2.100          
--------------------------------------------------------------------------------


  Lattice summation method               =    Ewald          (3-D)
                                         =    Parry          (2-D)
                                         =    Saunders et al (1-D)
  Accuracy factor for lattice sums       =   12.000


  Analytic derivatives to be used

  Time limit = Infinity

  Maximum range for interatomic potentials =    100000.000000 Angstroms

  EDIP forcefield to be used

  EDIP Coordination Number :

--------------------------------------------------------------------------------
 Atom Types   Sigma    alpha      f_low      f_high     p_low      p_high       
               or                 (Ang)      (Ang)      (Ang)      (Ang)        
  1     2     Pi       Zdih       Zrep       c0                                 
                                             (Ang)                              
--------------------------------------------------------------------------------
Si   c Si   c sigma    3.10838    2.56091    3.12138
--------------------------------------------------------------------------------

  EDIP Twobody Energy :

--------------------------------------------------------------------------------
Atom  Types   Epsilon     p     B       Beta      Sigma       a       a_prime   
  1     2      (eV)           (Ang)     (Ang)     (Ang)     (Ang)     (Ang)     
--------------------------------------------------------------------------------
Si   c Si   c    7.982171.209    1.5075    0.0071    0.5774    3.1214    0.0000
--------------------------------------------------------------------------------

  EDIP Threebody Energy (Original form) :

--------------------------------------------------------------------------------
 Atom  Types               Lambda0/          Mu/                 Eta/           
  1     2     3            Gamma             Gamma_prime         q              
--------------------------------------------------------------------------------
Si   c Si   c Si   c        1.453311         0.696633         0.252324
                            1.124794         1.000000       312.134135
--------------------------------------------------------------------------------

********************************************************************************
*  Output for configuration   1                                                *
********************************************************************************


  Components of energy : 

--------------------------------------------------------------------------------
  Interatomic potentials     =           0.00000000 eV    
  EDIP force field           =          -9.29635857 eV    
  Monopole - monopole (real) =           0.00000000 eV    
  Monopole - monopole (recip)=           0.00000000 eV    
  Monopole - monopole (total)=           0.00000000 eV    
--------------------------------------------------------------------------------
  Total lattice energy : 
    Primitive unit cell      =          -9.29635857 eV    
    Non-primitive unit cell  =         -37.18543428 eV    
--------------------------------------------------------------------------------
  Total lattice energy (in kJmol-1): 
    Primitive unit cell      =            -896.9565 kJ/(mole unit cells)
    Non-primitive unit cell  =           -3587.8260 kJ/(mole unit cells)
--------------------------------------------------------------------------------


  Number of variables =        1

  Maximum number of calculations  =          1000
  Maximum Hessian update interval =            10
  Maximum step size               =   1.000000000
  Maximum parameter tolerance     =   0.000010000
  Maximum function  tolerance     =   0.000010000
  Maximum gradient  tolerance     =   0.001000000
  Maximum gradient  component     =   0.010000000

  Symmetry constrained optimisation

  Cell parameters to be optimised using strains

  Newton-Raphson optimiser to be used

  BFGS hessian update to be used

  Lower half triangular hessian to be used

  Start of bulk optimisation :

  Cycle:      0 Energy:        -9.296359  Gnorm:      1.254303  CPU:    0.006
  Cycle:      1 Energy:        -9.299731  Gnorm:      0.281858  CPU:    0.007
  Cycle:      2 Energy:        -9.299908  Gnorm:      0.000092  CPU:    0.007


  **** Optimisation achieved ****


  Final energy =      -9.29990763 eV      
  Final Gnorm  =       0.00000024

  Components of energy : 

--------------------------------------------------------------------------------
  Interatomic potentials     =           0.00000000 eV    
  EDIP force field           =          -9.29990763 eV    
  Monopole - monopole (real) =           0.00000000 eV    
  Monopole - monopole (recip)=           0.00000000 eV    
  Monopole - monopole (total)=           0.00000000 eV    
--------------------------------------------------------------------------------
  Total lattice energy : 
    Primitive unit cell      =          -9.29990763 eV    
    Non-primitive unit cell  =         -37.19963053 eV    
--------------------------------------------------------------------------------
  Total lattice energy (in kJmol-1): 
    Primitive unit cell      =            -897.2989 kJ/(mole unit cells)
    Non-primitive unit cell  =           -3589.1957 kJ/(mole unit cells)
--------------------------------------------------------------------------------

  Final asymmetric unit coordinates :

--------------------------------------------------------------------------------
   No.  Atomic        x           y           z         Radius
        Label       (Frac)      (Frac)      (Frac)       (Angs) 
--------------------------------------------------------------------------------
     1  Si    c     0.000000    0.000000    0.000000    0.000000
     2  Si    c     0.250000    0.250000    0.250000    0.000000
--------------------------------------------------------------------------------

  Final Cartesian lattice vectors (Angstroms) :

        0.000000    2.715249    2.715249
        2.715249    0.000000    2.715249
        2.715249    2.715249    0.000000


  Final cell parameters and derivatives :

--------------------------------------------------------------------------------
       a            3.839942 Angstrom     dE/de1(xx)     0.000000 eV/strain
       b            3.839942 Angstrom     dE/de2(yy)     0.000000 eV/strain
       c            3.839942 Angstrom     dE/de3(zz)     0.000000 eV/strain
       alpha       60.000000 Degrees      dE/de4(yz)     0.000000 eV/strain
       beta        60.000000 Degrees      dE/de5(xz)     0.000000 eV/strain
       gamma       60.000000 Degrees      dE/de6(xy)     0.000000 eV/strain
--------------------------------------------------------------------------------

  Primitive cell volume =            40.036760 Angs**3

  Density of cell =      2.330123 g/cm**3

  Non-primitive lattice parameters :

  a    =     5.430498  b   =     5.430498  c    =     5.430498
  alpha=    90.000000  beta=    90.000000  gamma=    90.000000

  Non-primitive cell volume =           160.147041 Angs**3


  Final internal derivatives :

--------------------------------------------------------------------------------
   No.  Atomic          a             b             c           Radius
        Label          (eV)          (eV)          (eV)        (eV/Angs)
--------------------------------------------------------------------------------
      1 Si    c       0.000000      0.000000      0.000000      0.000000
      2 Si    c       0.000000      0.000000      0.000000      0.000000
--------------------------------------------------------------------------------
  Maximum abs         0.000000      0.000000      0.000000      0.000000
--------------------------------------------------------------------------------



  Elastic Constant Matrix: (Units=GPa)

-------------------------------------------------------------------------------
  Indices      1         2         3         4         5         6    
-------------------------------------------------------------------------------
       1    171.9917   64.7159   64.7159   -0.0000   -0.0000    0.0000
       2     64.7159  171.9917   64.7159   -0.0000   -0.0000    0.0000
       3     64.7159   64.7159  171.9917   -0.0000    0.0000   -0.0000
       4     -0.0000   -0.0000   -0.0000   72.7526    0.0000    0.0000
       5     -0.0000   -0.0000    0.0000    0.0000   72.7526    0.0000
       6      0.0000    0.0000   -0.0000    0.0000    0.0000   72.7526
-------------------------------------------------------------------------------


  Elastic Compliance Matrix: (Units=1/GPa)

-------------------------------------------------------------------------------
  Indices      1         2         3         4         5         6    
-------------------------------------------------------------------------------
       1    0.007320 -0.002001 -0.002001  0.000000  0.000000 -0.000000
       2   -0.002001  0.007320 -0.002001 -0.000000  0.000000 -0.000000
       3   -0.002001 -0.002001  0.007320  0.000000 -0.000000  0.000000
       4    0.000000 -0.000000  0.000000  0.013745 -0.000000 -0.000000
       5    0.000000  0.000000 -0.000000 -0.000000  0.013745 -0.000000
       6   -0.000000 -0.000000  0.000000 -0.000000 -0.000000  0.013745
-------------------------------------------------------------------------------

  Mechanical properties :

-------------------------------------------------------------------------------
  Convention :                    Reuss         Voigt         Hill
-------------------------------------------------------------------------------
  Bulk  Modulus (GPa)     =     100.47449     100.47449     100.47449
  Shear Modulus (GPa)     =      63.67584      65.10671      64.39127
-------------------------------------------------------------------------------
  Velocity S-wave (km/s)  =       5.22755       5.28595       5.25683
  Velocity P-wave (km/s)  =       8.91943       8.96521       8.94235
-------------------------------------------------------------------------------
  Compressibility (1/GPa) =    0.00995278
-------------------------------------------------------------------------------
  Stress axis :                     x             y             z
-------------------------------------------------------------------------------
  Youngs Moduli (GPa)     =     136.60505     136.60505     136.60505
-------------------------------------------------------------------------------
  Poissons Ratio (x)      =                     0.27340       0.27340
  Poissons Ratio (y)      =       0.27340                     0.27340
  Poissons Ratio (z)      =       0.27340       0.27340
-------------------------------------------------------------------------------


  Piezoelectric Strain Matrix: (Units=C/m**2)

-------------------------------------------------------------------------------
  Indices      1         2         3         4         5         6    
-------------------------------------------------------------------------------
       x    -0.00000  -0.00000  -0.00000  -0.00000  -0.00000  -0.00000
       y    -0.00000  -0.00000  -0.00000  -0.00000  -0.00000  -0.00000
       z    -0.00000  -0.00000  -0.00000  -0.00000  -0.00000  -0.00000
-------------------------------------------------------------------------------


  Piezoelectric Stress Matrix: (Units=10**-11 C/N)

-------------------------------------------------------------------------------
  Indices      1         2         3         4         5         6    
-------------------------------------------------------------------------------
       x     0.00000   0.00000   0.00000   0.00000   0.00000   0.00000
       y     0.00000   0.00000   0.00000   0.00000   0.00000   0.00000
       z     0.00000   0.00000   0.00000   0.00000   0.00000   0.00000
-------------------------------------------------------------------------------


  Static dielectric constant tensor : 

-------------------------------------------------------------------------------
              x         y         z
-------------------------------------------------------------------------------
       x     1.00000   0.00000   0.00000
       y     0.00000   1.00000   0.00000
       z     0.00000   0.00000   1.00000
--------------------------------------------------------------------------------

  Static refractive indices : 

-------------------------------------------------------------------------------
    1 =    1.00000      2 =    1.00000      3 =    1.00000
-------------------------------------------------------------------------------


  Time to end of optimisation =       0.0091 seconds


  Peak dynamic memory used =       1.81 MB 


  Timing analysis for GULP :

--------------------------------------------------------------------------------
  Task / Subroutine                                          Time (Seconds)
--------------------------------------------------------------------------------
  Calculation of EDIP energy and derivatives                      0.0017
  Symmetry generation of equivalent positions                     0.0016
--------------------------------------------------------------------------------
  Total CPU time                                                  0.0091
--------------------------------------------------------------------------------


  Marvin file written as Si.mvn


  Job Finished at 22:55.33 24th July       2022                               

