********************************************************************************
*                       GENERAL UTILITY LATTICE PROGRAM                        *
*                                 Julian Gale                                  *
*                       Curtin Institute for Computation                       *
*                    School of Molecular and Life Sciences                     *
*                    Curtin University, Western Australia                      *
********************************************************************************
* Version = 6.1.0 * Last modified =   8th July 2022                            *
********************************************************************************
*  single       - perform a single point run                                   *
*  phonon       - calculate phonons for final geometry                         *
*  nofrequency  - suppress frequency output after phonon calculation           *
*  broaden_dos  - broaden density of states curves                             *
********************************************************************************

  Job Started  at 19:25.24 27th July       2022                               

  Number of CPUs =     1


  Total number of configurations input =      1

********************************************************************************
*  Input for Configuration =   1                                               *
********************************************************************************

  Formula = MgO                                                         

  Number of irreducible atoms/shells =       4


  Total number atoms/shells =       4

  Dimensionality = 3               :  Bulk   


  Symmetry :

  Crystal family                   :  Cubic       
  Crystal class  (Groth - 1921)    :  Cubic Hexakisoctahedral              

  Space group (centrosymmetric)    :  F M 3 M         

  Patterson group                  :  F m -3 m 

  Cartesian lattice vectors (Angstroms) :

        0.000000    2.103023    2.103023
        2.103023    0.000000    2.103023
        2.103023    2.103023    0.000000

  Primitive cell parameters :            Full cell parameters :

  a =   2.9741    alpha =  60.0000       a =   4.2060    alpha =  90.0000
  b =   2.9741    beta  =  60.0000       b =   4.2060    beta  =  90.0000
  c =   2.9741    gamma =  60.0000       c =   4.2060    gamma =  90.0000

  Initial volumes (Angstroms**3):

  Primitive cell =          18.602104    Full cell =          74.408415

  Shrinking factors =     30    30    30

  Temperature of configuration =   0.00     K 

  Pressure of configuration =         0.000 GPa 

  Fractional coordinates of asymmetric unit :

--------------------------------------------------------------------------------
   No.  Atomic       x           y          z         Charge      Occupancy
        Label      (Frac)      (Frac)     (Frac)        (e)         (Frac)  
--------------------------------------------------------------------------------
      1 Mg    c    0.000000    0.000000    0.000000     1.58000    1.000000    
      2 O     c    0.500000    0.500000    0.500000     0.51300    1.000000    
      3 Mg    s    0.000000    0.000000    0.000000     0.42000    1.000000    
      4 O     s    0.500000    0.500000    0.500000    -2.51300    1.000000    
--------------------------------------------------------------------------------


  Brillouin zone sampling points :

--------------------------------------------------------------------------------
  Point number          x          y          z            Weight
--------------------------------------------------------------------------------
        1           0.016667   0.016667   0.016667     0.00003704
        2           0.050000   0.016667   0.016667     0.00011111
        3           0.050000   0.050000   0.016667     0.00011111
        4           0.050000   0.050000   0.050000     0.00003704
        5           0.083333   0.016667   0.016667     0.00011111
        6           0.083333   0.050000   0.016667     0.00022222
        7           0.083333   0.050000   0.050000     0.00011111
        8           0.083333   0.083333   0.016667     0.00011111
        9           0.083333   0.083333   0.050000     0.00011111
       10           0.083333   0.083333   0.083333     0.00003704
       11           0.116667   0.016667   0.016667     0.00011111
       12           0.116667   0.050000   0.016667     0.00022222
       13           0.116667   0.050000   0.050000     0.00011111
       14           0.116667   0.083333   0.016667     0.00022222
       15           0.116667   0.083333   0.050000     0.00022222
       16           0.116667   0.083333   0.083333     0.00011111
       17           0.116667   0.116667   0.016667     0.00011111
       18           0.116667   0.116667   0.050000     0.00011111
       19           0.116667   0.116667   0.083333     0.00011111
       20           0.116667   0.116667   0.116667     0.00003704
       21           0.150000   0.016667   0.016667     0.00011111
       22           0.150000   0.050000   0.016667     0.00022222
       23           0.150000   0.050000   0.050000     0.00011111
       24           0.150000   0.083333   0.016667     0.00022222
       25           0.150000   0.083333   0.050000     0.00022222
       26           0.150000   0.083333   0.083333     0.00011111
       27           0.150000   0.116667   0.016667     0.00022222
       28           0.150000   0.116667   0.050000     0.00022222
       29           0.150000   0.116667   0.083333     0.00022222
       30           0.150000   0.116667   0.116667     0.00011111
       31           0.150000   0.150000   0.016667     0.00011111
       32           0.150000   0.150000   0.050000     0.00011111
       33           0.150000   0.150000   0.083333     0.00011111
       34           0.150000   0.150000   0.116667     0.00011111
       35           0.150000   0.150000   0.150000     0.00003704
       36           0.183333   0.016667   0.016667     0.00011111
       37           0.183333   0.050000   0.016667     0.00022222
       38           0.183333   0.050000   0.050000     0.00011111
       39           0.183333   0.083333   0.016667     0.00022222
       40           0.183333   0.083333   0.050000     0.00022222
       41           0.183333   0.083333   0.083333     0.00011111
       42           0.183333   0.116667   0.016667     0.00022222
       43           0.183333   0.116667   0.050000     0.00022222
       44           0.183333   0.116667   0.083333     0.00022222
       45           0.183333   0.116667   0.116667     0.00011111
       46           0.183333   0.150000   0.016667     0.00022222
       47           0.183333   0.150000   0.050000     0.00022222
       48           0.183333   0.150000   0.083333     0.00022222
       49           0.183333   0.150000   0.116667     0.00022222
       50           0.183333   0.150000   0.150000     0.00011111
       51           0.183333   0.183333   0.016667     0.00011111
       52           0.183333   0.183333   0.050000     0.00011111
       53           0.183333   0.183333   0.083333     0.00011111
       54           0.183333   0.183333   0.116667     0.00011111
       55           0.183333   0.183333   0.150000     0.00011111
       56           0.183333   0.183333   0.183333     0.00003704
       57           0.216667   0.016667   0.016667     0.00011111
       58           0.216667   0.050000   0.016667     0.00022222
       59           0.216667   0.050000   0.050000     0.00011111
       60           0.216667   0.083333   0.016667     0.00022222
       61           0.216667   0.083333   0.050000     0.00022222
       62           0.216667   0.083333   0.083333     0.00011111
       63           0.216667   0.116667   0.016667     0.00022222
       64           0.216667   0.116667   0.050000     0.00022222
       65           0.216667   0.116667   0.083333     0.00022222
       66           0.216667   0.116667   0.116667     0.00011111
       67           0.216667   0.150000   0.016667     0.00022222
       68           0.216667   0.150000   0.050000     0.00022222
       69           0.216667   0.150000   0.083333     0.00022222
       70           0.216667   0.150000   0.116667     0.00022222
       71           0.216667   0.150000   0.150000     0.00011111
       72           0.216667   0.183333   0.016667     0.00022222
       73           0.216667   0.183333   0.050000     0.00022222
       74           0.216667   0.183333   0.083333     0.00022222
       75           0.216667   0.183333   0.116667     0.00022222
       76           0.216667   0.183333   0.150000     0.00022222
       77           0.216667   0.183333   0.183333     0.00011111
       78           0.216667   0.216667   0.016667     0.00011111
       79           0.216667   0.216667   0.050000     0.00011111
       80           0.216667   0.216667   0.083333     0.00011111
       81           0.216667   0.216667   0.116667     0.00011111
       82           0.216667   0.216667   0.150000     0.00011111
       83           0.216667   0.216667   0.183333     0.00011111
       84           0.216667   0.216667   0.216667     0.00003704
       85           0.250000   0.016667   0.016667     0.00011111
       86           0.250000   0.050000   0.016667     0.00022222
       87           0.250000   0.050000   0.050000     0.00011111
       88           0.250000   0.083333   0.016667     0.00022222
       89           0.250000   0.083333   0.050000     0.00022222
       90           0.250000   0.083333   0.083333     0.00011111
       91           0.250000   0.116667   0.016667     0.00022222
       92           0.250000   0.116667   0.050000     0.00022222
       93           0.250000   0.116667   0.083333     0.00022222
       94           0.250000   0.116667   0.116667     0.00011111
       95           0.250000   0.150000   0.016667     0.00022222
       96           0.250000   0.150000   0.050000     0.00022222
       97           0.250000   0.150000   0.083333     0.00022222
       98           0.250000   0.150000   0.116667     0.00022222
       99           0.250000   0.150000   0.150000     0.00011111
      100           0.250000   0.183333   0.016667     0.00022222
      101           0.250000   0.183333   0.050000     0.00022222
      102           0.250000   0.183333   0.083333     0.00022222
      103           0.250000   0.183333   0.116667     0.00022222
      104           0.250000   0.183333   0.150000     0.00022222
      105           0.250000   0.183333   0.183333     0.00011111
      106           0.250000   0.216667   0.016667     0.00022222
      107           0.250000   0.216667   0.050000     0.00022222
      108           0.250000   0.216667   0.083333     0.00022222
      109           0.250000   0.216667   0.116667     0.00022222
      110           0.250000   0.216667   0.150000     0.00022222
      111           0.250000   0.216667   0.183333     0.00022222
      112           0.250000   0.216667   0.216667     0.00011111
      113           0.250000   0.250000   0.016667     0.00011111
      114           0.250000   0.250000   0.050000     0.00011111
      115           0.250000   0.250000   0.083333     0.00011111
      116           0.250000   0.250000   0.116667     0.00011111
      117           0.250000   0.250000   0.150000     0.00011111
      118           0.250000   0.250000   0.183333     0.00011111
      119           0.250000   0.250000   0.216667     0.00011111
      120           0.250000   0.250000   0.250000     0.00003704
      121           0.283333   0.016667   0.016667     0.00011111
      122           0.283333   0.050000   0.016667     0.00022222
      123           0.283333   0.050000   0.050000     0.00011111
      124           0.283333   0.083333   0.016667     0.00022222
      125           0.283333   0.083333   0.050000     0.00022222
      126           0.283333   0.083333   0.083333     0.00011111
      127           0.283333   0.116667   0.016667     0.00022222
      128           0.283333   0.116667   0.050000     0.00022222
      129           0.283333   0.116667   0.083333     0.00022222
      130           0.283333   0.116667   0.116667     0.00011111
      131           0.283333   0.150000   0.016667     0.00022222
      132           0.283333   0.150000   0.050000     0.00022222
      133           0.283333   0.150000   0.083333     0.00022222
      134           0.283333   0.150000   0.116667     0.00022222
      135           0.283333   0.150000   0.150000     0.00011111
      136           0.283333   0.183333   0.016667     0.00022222
      137           0.283333   0.183333   0.050000     0.00022222
      138           0.283333   0.183333   0.083333     0.00022222
      139           0.283333   0.183333   0.116667     0.00022222
      140           0.283333   0.183333   0.150000     0.00022222
      141           0.283333   0.183333   0.183333     0.00011111
      142           0.283333   0.216667   0.016667     0.00022222
      143           0.283333   0.216667   0.050000     0.00022222
      144           0.283333   0.216667   0.083333     0.00022222
      145           0.283333   0.216667   0.116667     0.00022222
      146           0.283333   0.216667   0.150000     0.00022222
      147           0.283333   0.216667   0.183333     0.00022222
      148           0.283333   0.216667   0.216667     0.00011111
      149           0.283333   0.250000   0.016667     0.00022222
      150           0.283333   0.250000   0.050000     0.00022222
      151           0.283333   0.250000   0.083333     0.00022222
      152           0.283333   0.250000   0.116667     0.00022222
      153           0.283333   0.250000   0.150000     0.00022222
      154           0.283333   0.250000   0.183333     0.00022222
      155           0.283333   0.250000   0.216667     0.00022222
      156           0.283333   0.250000   0.250000     0.00011111
      157           0.283333   0.283333   0.016667     0.00011111
      158           0.283333   0.283333   0.050000     0.00011111
      159           0.283333   0.283333   0.083333     0.00011111
      160           0.283333   0.283333   0.116667     0.00011111
      161           0.283333   0.283333   0.150000     0.00011111
      162           0.283333   0.283333   0.183333     0.00011111
      163           0.283333   0.283333   0.216667     0.00011111
      164           0.283333   0.283333   0.250000     0.00011111
      165           0.283333   0.283333   0.283333     0.00003704
      166           0.316667   0.016667   0.016667     0.00011111
      167           0.316667   0.050000   0.016667     0.00022222
      168           0.316667   0.050000   0.050000     0.00011111
      169           0.316667   0.083333   0.016667     0.00022222
      170           0.316667   0.083333   0.050000     0.00022222
      171           0.316667   0.083333   0.083333     0.00011111
      172           0.316667   0.116667   0.016667     0.00022222
      173           0.316667   0.116667   0.050000     0.00022222
      174           0.316667   0.116667   0.083333     0.00022222
      175           0.316667   0.116667   0.116667     0.00011111
      176           0.316667   0.150000   0.016667     0.00022222
      177           0.316667   0.150000   0.050000     0.00022222
      178           0.316667   0.150000   0.083333     0.00022222
      179           0.316667   0.150000   0.116667     0.00022222
      180           0.316667   0.150000   0.150000     0.00011111
      181           0.316667   0.183333   0.016667     0.00022222
      182           0.316667   0.183333   0.050000     0.00022222
      183           0.316667   0.183333   0.083333     0.00022222
      184           0.316667   0.183333   0.116667     0.00022222
      185           0.316667   0.183333   0.150000     0.00022222
      186           0.316667   0.183333   0.183333     0.00011111
      187           0.316667   0.216667   0.016667     0.00022222
      188           0.316667   0.216667   0.050000     0.00022222
      189           0.316667   0.216667   0.083333     0.00022222
      190           0.316667   0.216667   0.116667     0.00022222
      191           0.316667   0.216667   0.150000     0.00022222
      192           0.316667   0.216667   0.183333     0.00022222
      193           0.316667   0.216667   0.216667     0.00011111
      194           0.316667   0.250000   0.016667     0.00022222
      195           0.316667   0.250000   0.050000     0.00022222
      196           0.316667   0.250000   0.083333     0.00022222
      197           0.316667   0.250000   0.116667     0.00022222
      198           0.316667   0.250000   0.150000     0.00022222
      199           0.316667   0.250000   0.183333     0.00022222
      200           0.316667   0.250000   0.216667     0.00022222
      201           0.316667   0.250000   0.250000     0.00011111
      202           0.316667   0.283333   0.016667     0.00022222
      203           0.316667   0.283333   0.050000     0.00022222
      204           0.316667   0.283333   0.083333     0.00022222
      205           0.316667   0.283333   0.116667     0.00022222
      206           0.316667   0.283333   0.150000     0.00022222
      207           0.316667   0.283333   0.183333     0.00022222
      208           0.316667   0.283333   0.216667     0.00022222
      209           0.316667   0.283333   0.250000     0.00022222
      210           0.316667   0.283333   0.283333     0.00011111
      211           0.316667   0.316667   0.016667     0.00011111
      212           0.316667   0.316667   0.050000     0.00011111
      213           0.316667   0.316667   0.083333     0.00011111
      214           0.316667   0.316667   0.116667     0.00011111
      215           0.316667   0.316667   0.150000     0.00011111
      216           0.316667   0.316667   0.183333     0.00011111
      217           0.316667   0.316667   0.216667     0.00011111
      218           0.316667   0.316667   0.250000     0.00011111
      219           0.316667   0.316667   0.283333     0.00011111
      220           0.316667   0.316667   0.316667     0.00003704
      221           0.350000   0.016667   0.016667     0.00011111
      222           0.350000   0.050000   0.016667     0.00022222
      223           0.350000   0.050000   0.050000     0.00011111
      224           0.350000   0.083333   0.016667     0.00022222
      225           0.350000   0.083333   0.050000     0.00022222
      226           0.350000   0.083333   0.083333     0.00011111
      227           0.350000   0.116667   0.016667     0.00022222
      228           0.350000   0.116667   0.050000     0.00022222
      229           0.350000   0.116667   0.083333     0.00022222
      230           0.350000   0.116667   0.116667     0.00011111
      231           0.350000   0.150000   0.016667     0.00022222
      232           0.350000   0.150000   0.050000     0.00022222
      233           0.350000   0.150000   0.083333     0.00022222
      234           0.350000   0.150000   0.116667     0.00022222
      235           0.350000   0.150000   0.150000     0.00011111
      236           0.350000   0.183333   0.016667     0.00022222
      237           0.350000   0.183333   0.050000     0.00022222
      238           0.350000   0.183333   0.083333     0.00022222
      239           0.350000   0.183333   0.116667     0.00022222
      240           0.350000   0.183333   0.150000     0.00022222
      241           0.350000   0.183333   0.183333     0.00011111
      242           0.350000   0.216667   0.016667     0.00022222
      243           0.350000   0.216667   0.050000     0.00022222
      244           0.350000   0.216667   0.083333     0.00022222
      245           0.350000   0.216667   0.116667     0.00022222
      246           0.350000   0.216667   0.150000     0.00022222
      247           0.350000   0.216667   0.183333     0.00022222
      248           0.350000   0.216667   0.216667     0.00011111
      249           0.350000   0.250000   0.016667     0.00022222
      250           0.350000   0.250000   0.050000     0.00022222
      251           0.350000   0.250000   0.083333     0.00022222
      252           0.350000   0.250000   0.116667     0.00022222
      253           0.350000   0.250000   0.150000     0.00022222
      254           0.350000   0.250000   0.183333     0.00022222
      255           0.350000   0.250000   0.216667     0.00022222
      256           0.350000   0.250000   0.250000     0.00011111
      257           0.350000   0.283333   0.016667     0.00022222
      258           0.350000   0.283333   0.050000     0.00022222
      259           0.350000   0.283333   0.083333     0.00022222
      260           0.350000   0.283333   0.116667     0.00022222
      261           0.350000   0.283333   0.150000     0.00022222
      262           0.350000   0.283333   0.183333     0.00022222
      263           0.350000   0.283333   0.216667     0.00022222
      264           0.350000   0.283333   0.250000     0.00022222
      265           0.350000   0.283333   0.283333     0.00011111
      266           0.350000   0.316667   0.016667     0.00022222
      267           0.350000   0.316667   0.050000     0.00022222
      268           0.350000   0.316667   0.083333     0.00022222
      269           0.350000   0.316667   0.116667     0.00022222
      270           0.350000   0.316667   0.150000     0.00022222
      271           0.350000   0.316667   0.183333     0.00022222
      272           0.350000   0.316667   0.216667     0.00022222
      273           0.350000   0.316667   0.250000     0.00022222
      274           0.350000   0.316667   0.283333     0.00022222
      275           0.350000   0.316667   0.316667     0.00011111
      276           0.350000   0.350000   0.016667     0.00011111
      277           0.350000   0.350000   0.050000     0.00011111
      278           0.350000   0.350000   0.083333     0.00011111
      279           0.350000   0.350000   0.116667     0.00011111
      280           0.350000   0.350000   0.150000     0.00011111
      281           0.350000   0.350000   0.183333     0.00011111
      282           0.350000   0.350000   0.216667     0.00011111
      283           0.350000   0.350000   0.250000     0.00011111
      284           0.350000   0.350000   0.283333     0.00011111
      285           0.350000   0.350000   0.316667     0.00011111
      286           0.350000   0.350000   0.350000     0.00003704
      287           0.383333   0.016667   0.016667     0.00011111
      288           0.383333   0.050000   0.016667     0.00022222
      289           0.383333   0.050000   0.050000     0.00011111
      290           0.383333   0.083333   0.016667     0.00022222
      291           0.383333   0.083333   0.050000     0.00022222
      292           0.383333   0.083333   0.083333     0.00011111
      293           0.383333   0.116667   0.016667     0.00022222
      294           0.383333   0.116667   0.050000     0.00022222
      295           0.383333   0.116667   0.083333     0.00022222
      296           0.383333   0.116667   0.116667     0.00011111
      297           0.383333   0.150000   0.016667     0.00022222
      298           0.383333   0.150000   0.050000     0.00022222
      299           0.383333   0.150000   0.083333     0.00022222
      300           0.383333   0.150000   0.116667     0.00022222
      301           0.383333   0.150000   0.150000     0.00011111
      302           0.383333   0.183333   0.016667     0.00022222
      303           0.383333   0.183333   0.050000     0.00022222
      304           0.383333   0.183333   0.083333     0.00022222
      305           0.383333   0.183333   0.116667     0.00022222
      306           0.383333   0.183333   0.150000     0.00022222
      307           0.383333   0.183333   0.183333     0.00011111
      308           0.383333   0.216667   0.016667     0.00022222
      309           0.383333   0.216667   0.050000     0.00022222
      310           0.383333   0.216667   0.083333     0.00022222
      311           0.383333   0.216667   0.116667     0.00022222
      312           0.383333   0.216667   0.150000     0.00022222
      313           0.383333   0.216667   0.183333     0.00022222
      314           0.383333   0.216667   0.216667     0.00011111
      315           0.383333   0.250000   0.016667     0.00022222
      316           0.383333   0.250000   0.050000     0.00022222
      317           0.383333   0.250000   0.083333     0.00022222
      318           0.383333   0.250000   0.116667     0.00022222
      319           0.383333   0.250000   0.150000     0.00022222
      320           0.383333   0.250000   0.183333     0.00022222
      321           0.383333   0.250000   0.216667     0.00022222
      322           0.383333   0.250000   0.250000     0.00011111
      323           0.383333   0.283333   0.016667     0.00022222
      324           0.383333   0.283333   0.050000     0.00022222
      325           0.383333   0.283333   0.083333     0.00022222
      326           0.383333   0.283333   0.116667     0.00022222
      327           0.383333   0.283333   0.150000     0.00022222
      328           0.383333   0.283333   0.183333     0.00022222
      329           0.383333   0.283333   0.216667     0.00022222
      330           0.383333   0.283333   0.250000     0.00022222
      331           0.383333   0.283333   0.283333     0.00011111
      332           0.383333   0.316667   0.016667     0.00022222
      333           0.383333   0.316667   0.050000     0.00022222
      334           0.383333   0.316667   0.083333     0.00022222
      335           0.383333   0.316667   0.116667     0.00022222
      336           0.383333   0.316667   0.150000     0.00022222
      337           0.383333   0.316667   0.183333     0.00022222
      338           0.383333   0.316667   0.216667     0.00022222
      339           0.383333   0.316667   0.250000     0.00022222
      340           0.383333   0.316667   0.283333     0.00022222
      341           0.383333   0.316667   0.316667     0.00011111
      342           0.383333   0.350000   0.016667     0.00022222
      343           0.383333   0.350000   0.050000     0.00022222
      344           0.383333   0.350000   0.083333     0.00022222
      345           0.383333   0.350000   0.116667     0.00022222
      346           0.383333   0.350000   0.150000     0.00022222
      347           0.383333   0.350000   0.183333     0.00022222
      348           0.383333   0.350000   0.216667     0.00022222
      349           0.383333   0.350000   0.250000     0.00022222
      350           0.383333   0.350000   0.283333     0.00022222
      351           0.383333   0.350000   0.316667     0.00022222
      352           0.383333   0.350000   0.350000     0.00011111
      353           0.383333   0.383333   0.016667     0.00011111
      354           0.383333   0.383333   0.050000     0.00011111
      355           0.383333   0.383333   0.083333     0.00011111
      356           0.383333   0.383333   0.116667     0.00011111
      357           0.383333   0.383333   0.150000     0.00011111
      358           0.383333   0.383333   0.183333     0.00011111
      359           0.383333   0.383333   0.216667     0.00011111
      360           0.383333   0.383333   0.250000     0.00011111
      361           0.383333   0.383333   0.283333     0.00011111
      362           0.383333   0.383333   0.316667     0.00011111
      363           0.383333   0.383333   0.350000     0.00011111
      364           0.383333   0.383333   0.383333     0.00003704
      365           0.416667   0.016667   0.016667     0.00011111
      366           0.416667   0.050000   0.016667     0.00022222
      367           0.416667   0.050000   0.050000     0.00011111
      368           0.416667   0.083333   0.016667     0.00022222
      369           0.416667   0.083333   0.050000     0.00022222
      370           0.416667   0.083333   0.083333     0.00011111
      371           0.416667   0.116667   0.016667     0.00022222
      372           0.416667   0.116667   0.050000     0.00022222
      373           0.416667   0.116667   0.083333     0.00022222
      374           0.416667   0.116667   0.116667     0.00011111
      375           0.416667   0.150000   0.016667     0.00022222
      376           0.416667   0.150000   0.050000     0.00022222
      377           0.416667   0.150000   0.083333     0.00022222
      378           0.416667   0.150000   0.116667     0.00022222
      379           0.416667   0.150000   0.150000     0.00011111
      380           0.416667   0.183333   0.016667     0.00022222
      381           0.416667   0.183333   0.050000     0.00022222
      382           0.416667   0.183333   0.083333     0.00022222
      383           0.416667   0.183333   0.116667     0.00022222
      384           0.416667   0.183333   0.150000     0.00022222
      385           0.416667   0.183333   0.183333     0.00011111
      386           0.416667   0.216667   0.016667     0.00022222
      387           0.416667   0.216667   0.050000     0.00022222
      388           0.416667   0.216667   0.083333     0.00022222
      389           0.416667   0.216667   0.116667     0.00022222
      390           0.416667   0.216667   0.150000     0.00022222
      391           0.416667   0.216667   0.183333     0.00022222
      392           0.416667   0.216667   0.216667     0.00011111
      393           0.416667   0.250000   0.016667     0.00022222
      394           0.416667   0.250000   0.050000     0.00022222
      395           0.416667   0.250000   0.083333     0.00022222
      396           0.416667   0.250000   0.116667     0.00022222
      397           0.416667   0.250000   0.150000     0.00022222
      398           0.416667   0.250000   0.183333     0.00022222
      399           0.416667   0.250000   0.216667     0.00022222
      400           0.416667   0.250000   0.250000     0.00011111
      401           0.416667   0.283333   0.016667     0.00022222
      402           0.416667   0.283333   0.050000     0.00022222
      403           0.416667   0.283333   0.083333     0.00022222
      404           0.416667   0.283333   0.116667     0.00022222
      405           0.416667   0.283333   0.150000     0.00022222
      406           0.416667   0.283333   0.183333     0.00022222
      407           0.416667   0.283333   0.216667     0.00022222
      408           0.416667   0.283333   0.250000     0.00022222
      409           0.416667   0.283333   0.283333     0.00011111
      410           0.416667   0.316667   0.016667     0.00022222
      411           0.416667   0.316667   0.050000     0.00022222
      412           0.416667   0.316667   0.083333     0.00022222
      413           0.416667   0.316667   0.116667     0.00022222
      414           0.416667   0.316667   0.150000     0.00022222
      415           0.416667   0.316667   0.183333     0.00022222
      416           0.416667   0.316667   0.216667     0.00022222
      417           0.416667   0.316667   0.250000     0.00022222
      418           0.416667   0.316667   0.283333     0.00022222
      419           0.416667   0.316667   0.316667     0.00011111
      420           0.416667   0.350000   0.016667     0.00022222
      421           0.416667   0.350000   0.050000     0.00022222
      422           0.416667   0.350000   0.083333     0.00022222
      423           0.416667   0.350000   0.116667     0.00022222
      424           0.416667   0.350000   0.150000     0.00022222
      425           0.416667   0.350000   0.183333     0.00022222
      426           0.416667   0.350000   0.216667     0.00022222
      427           0.416667   0.350000   0.250000     0.00022222
      428           0.416667   0.350000   0.283333     0.00022222
      429           0.416667   0.350000   0.316667     0.00022222
      430           0.416667   0.350000   0.350000     0.00011111
      431           0.416667   0.383333   0.016667     0.00022222
      432           0.416667   0.383333   0.050000     0.00022222
      433           0.416667   0.383333   0.083333     0.00022222
      434           0.416667   0.383333   0.116667     0.00022222
      435           0.416667   0.383333   0.150000     0.00022222
      436           0.416667   0.383333   0.183333     0.00022222
      437           0.416667   0.383333   0.216667     0.00022222
      438           0.416667   0.383333   0.250000     0.00022222
      439           0.416667   0.383333   0.283333     0.00022222
      440           0.416667   0.383333   0.316667     0.00022222
      441           0.416667   0.383333   0.350000     0.00022222
      442           0.416667   0.383333   0.383333     0.00011111
      443           0.416667   0.416667   0.016667     0.00011111
      444           0.416667   0.416667   0.050000     0.00011111
      445           0.416667   0.416667   0.083333     0.00011111
      446           0.416667   0.416667   0.116667     0.00011111
      447           0.416667   0.416667   0.150000     0.00011111
      448           0.416667   0.416667   0.183333     0.00011111
      449           0.416667   0.416667   0.216667     0.00011111
      450           0.416667   0.416667   0.250000     0.00011111
      451           0.416667   0.416667   0.283333     0.00011111
      452           0.416667   0.416667   0.316667     0.00011111
      453           0.416667   0.416667   0.350000     0.00011111
      454           0.416667   0.416667   0.383333     0.00011111
      455           0.416667   0.416667   0.416667     0.00003704
      456           0.450000   0.016667   0.016667     0.00011111
      457           0.450000   0.050000   0.016667     0.00022222
      458           0.450000   0.050000   0.050000     0.00011111
      459           0.450000   0.083333   0.016667     0.00022222
      460           0.450000   0.083333   0.050000     0.00022222
      461           0.450000   0.083333   0.083333     0.00011111
      462           0.450000   0.116667   0.016667     0.00022222
      463           0.450000   0.116667   0.050000     0.00022222
      464           0.450000   0.116667   0.083333     0.00022222
      465           0.450000   0.116667   0.116667     0.00011111
      466           0.450000   0.150000   0.016667     0.00022222
      467           0.450000   0.150000   0.050000     0.00022222
      468           0.450000   0.150000   0.083333     0.00022222
      469           0.450000   0.150000   0.116667     0.00022222
      470           0.450000   0.150000   0.150000     0.00011111
      471           0.450000   0.183333   0.016667     0.00022222
      472           0.450000   0.183333   0.050000     0.00022222
      473           0.450000   0.183333   0.083333     0.00022222
      474           0.450000   0.183333   0.116667     0.00022222
      475           0.450000   0.183333   0.150000     0.00022222
      476           0.450000   0.183333   0.183333     0.00011111
      477           0.450000   0.216667   0.016667     0.00022222
      478           0.450000   0.216667   0.050000     0.00022222
      479           0.450000   0.216667   0.083333     0.00022222
      480           0.450000   0.216667   0.116667     0.00022222
      481           0.450000   0.216667   0.150000     0.00022222
      482           0.450000   0.216667   0.183333     0.00022222
      483           0.450000   0.216667   0.216667     0.00011111
      484           0.450000   0.250000   0.016667     0.00022222
      485           0.450000   0.250000   0.050000     0.00022222
      486           0.450000   0.250000   0.083333     0.00022222
      487           0.450000   0.250000   0.116667     0.00022222
      488           0.450000   0.250000   0.150000     0.00022222
      489           0.450000   0.250000   0.183333     0.00022222
      490           0.450000   0.250000   0.216667     0.00022222
      491           0.450000   0.250000   0.250000     0.00011111
      492           0.450000   0.283333   0.016667     0.00022222
      493           0.450000   0.283333   0.050000     0.00022222
      494           0.450000   0.283333   0.083333     0.00022222
      495           0.450000   0.283333   0.116667     0.00022222
      496           0.450000   0.283333   0.150000     0.00022222
      497           0.450000   0.283333   0.183333     0.00022222
      498           0.450000   0.283333   0.216667     0.00022222
      499           0.450000   0.283333   0.250000     0.00022222
      500           0.450000   0.283333   0.283333     0.00011111
      501           0.450000   0.316667   0.016667     0.00022222
      502           0.450000   0.316667   0.050000     0.00022222
      503           0.450000   0.316667   0.083333     0.00022222
      504           0.450000   0.316667   0.116667     0.00022222
      505           0.450000   0.316667   0.150000     0.00022222
      506           0.450000   0.316667   0.183333     0.00022222
      507           0.450000   0.316667   0.216667     0.00022222
      508           0.450000   0.316667   0.250000     0.00022222
      509           0.450000   0.316667   0.283333     0.00022222
      510           0.450000   0.316667   0.316667     0.00011111
      511           0.450000   0.350000   0.016667     0.00022222
      512           0.450000   0.350000   0.050000     0.00022222
      513           0.450000   0.350000   0.083333     0.00022222
      514           0.450000   0.350000   0.116667     0.00022222
      515           0.450000   0.350000   0.150000     0.00022222
      516           0.450000   0.350000   0.183333     0.00022222
      517           0.450000   0.350000   0.216667     0.00022222
      518           0.450000   0.350000   0.250000     0.00022222
      519           0.450000   0.350000   0.283333     0.00022222
      520           0.450000   0.350000   0.316667     0.00022222
      521           0.450000   0.350000   0.350000     0.00011111
      522           0.450000   0.383333   0.016667     0.00022222
      523           0.450000   0.383333   0.050000     0.00022222
      524           0.450000   0.383333   0.083333     0.00022222
      525           0.450000   0.383333   0.116667     0.00022222
      526           0.450000   0.383333   0.150000     0.00022222
      527           0.450000   0.383333   0.183333     0.00022222
      528           0.450000   0.383333   0.216667     0.00022222
      529           0.450000   0.383333   0.250000     0.00022222
      530           0.450000   0.383333   0.283333     0.00022222
      531           0.450000   0.383333   0.316667     0.00022222
      532           0.450000   0.383333   0.350000     0.00022222
      533           0.450000   0.383333   0.383333     0.00011111
      534           0.450000   0.416667   0.016667     0.00022222
      535           0.450000   0.416667   0.050000     0.00022222
      536           0.450000   0.416667   0.083333     0.00022222
      537           0.450000   0.416667   0.116667     0.00022222
      538           0.450000   0.416667   0.150000     0.00022222
      539           0.450000   0.416667   0.183333     0.00022222
      540           0.450000   0.416667   0.216667     0.00022222
      541           0.450000   0.416667   0.250000     0.00022222
      542           0.450000   0.416667   0.283333     0.00022222
      543           0.450000   0.416667   0.316667     0.00022222
      544           0.450000   0.416667   0.350000     0.00022222
      545           0.450000   0.416667   0.383333     0.00022222
      546           0.450000   0.416667   0.416667     0.00011111
      547           0.450000   0.450000   0.016667     0.00011111
      548           0.450000   0.450000   0.050000     0.00011111
      549           0.450000   0.450000   0.083333     0.00011111
      550           0.450000   0.450000   0.116667     0.00011111
      551           0.450000   0.450000   0.150000     0.00011111
      552           0.450000   0.450000   0.183333     0.00011111
      553           0.450000   0.450000   0.216667     0.00011111
      554           0.450000   0.450000   0.250000     0.00011111
      555           0.450000   0.450000   0.283333     0.00011111
      556           0.450000   0.450000   0.316667     0.00011111
      557           0.450000   0.450000   0.350000     0.00011111
      558           0.450000   0.450000   0.383333     0.00011111
      559           0.450000   0.450000   0.416667     0.00011111
      560           0.450000   0.450000   0.450000     0.00003704
      561           0.483333   0.016667   0.016667     0.00011111
      562           0.483333   0.050000   0.016667     0.00022222
      563           0.483333   0.050000   0.050000     0.00011111
      564           0.483333   0.083333   0.016667     0.00022222
      565           0.483333   0.083333   0.050000     0.00022222
      566           0.483333   0.083333   0.083333     0.00011111
      567           0.483333   0.116667   0.016667     0.00022222
      568           0.483333   0.116667   0.050000     0.00022222
      569           0.483333   0.116667   0.083333     0.00022222
      570           0.483333   0.116667   0.116667     0.00011111
      571           0.483333   0.150000   0.016667     0.00022222
      572           0.483333   0.150000   0.050000     0.00022222
      573           0.483333   0.150000   0.083333     0.00022222
      574           0.483333   0.150000   0.116667     0.00022222
      575           0.483333   0.150000   0.150000     0.00011111
      576           0.483333   0.183333   0.016667     0.00022222
      577           0.483333   0.183333   0.050000     0.00022222
      578           0.483333   0.183333   0.083333     0.00022222
      579           0.483333   0.183333   0.116667     0.00022222
      580           0.483333   0.183333   0.150000     0.00022222
      581           0.483333   0.183333   0.183333     0.00011111
      582           0.483333   0.216667   0.016667     0.00022222
      583           0.483333   0.216667   0.050000     0.00022222
      584           0.483333   0.216667   0.083333     0.00022222
      585           0.483333   0.216667   0.116667     0.00022222
      586           0.483333   0.216667   0.150000     0.00022222
      587           0.483333   0.216667   0.183333     0.00022222
      588           0.483333   0.216667   0.216667     0.00011111
      589           0.483333   0.250000   0.016667     0.00022222
      590           0.483333   0.250000   0.050000     0.00022222
      591           0.483333   0.250000   0.083333     0.00022222
      592           0.483333   0.250000   0.116667     0.00022222
      593           0.483333   0.250000   0.150000     0.00022222
      594           0.483333   0.250000   0.183333     0.00022222
      595           0.483333   0.250000   0.216667     0.00022222
      596           0.483333   0.250000   0.250000     0.00011111
      597           0.483333   0.283333   0.016667     0.00022222
      598           0.483333   0.283333   0.050000     0.00022222
      599           0.483333   0.283333   0.083333     0.00022222
      600           0.483333   0.283333   0.116667     0.00022222
      601           0.483333   0.283333   0.150000     0.00022222
      602           0.483333   0.283333   0.183333     0.00022222
      603           0.483333   0.283333   0.216667     0.00022222
      604           0.483333   0.283333   0.250000     0.00022222
      605           0.483333   0.283333   0.283333     0.00011111
      606           0.483333   0.316667   0.016667     0.00022222
      607           0.483333   0.316667   0.050000     0.00022222
      608           0.483333   0.316667   0.083333     0.00022222
      609           0.483333   0.316667   0.116667     0.00022222
      610           0.483333   0.316667   0.150000     0.00022222
      611           0.483333   0.316667   0.183333     0.00022222
      612           0.483333   0.316667   0.216667     0.00022222
      613           0.483333   0.316667   0.250000     0.00022222
      614           0.483333   0.316667   0.283333     0.00022222
      615           0.483333   0.316667   0.316667     0.00011111
      616           0.483333   0.350000   0.016667     0.00022222
      617           0.483333   0.350000   0.050000     0.00022222
      618           0.483333   0.350000   0.083333     0.00022222
      619           0.483333   0.350000   0.116667     0.00022222
      620           0.483333   0.350000   0.150000     0.00022222
      621           0.483333   0.350000   0.183333     0.00022222
      622           0.483333   0.350000   0.216667     0.00022222
      623           0.483333   0.350000   0.250000     0.00022222
      624           0.483333   0.350000   0.283333     0.00022222
      625           0.483333   0.350000   0.316667     0.00022222
      626           0.483333   0.350000   0.350000     0.00011111
      627           0.483333   0.383333   0.016667     0.00022222
      628           0.483333   0.383333   0.050000     0.00022222
      629           0.483333   0.383333   0.083333     0.00022222
      630           0.483333   0.383333   0.116667     0.00022222
      631           0.483333   0.383333   0.150000     0.00022222
      632           0.483333   0.383333   0.183333     0.00022222
      633           0.483333   0.383333   0.216667     0.00022222
      634           0.483333   0.383333   0.250000     0.00022222
      635           0.483333   0.383333   0.283333     0.00022222
      636           0.483333   0.383333   0.316667     0.00022222
      637           0.483333   0.383333   0.350000     0.00022222
      638           0.483333   0.383333   0.383333     0.00011111
      639           0.483333   0.416667   0.016667     0.00022222
      640           0.483333   0.416667   0.050000     0.00022222
      641           0.483333   0.416667   0.083333     0.00022222
      642           0.483333   0.416667   0.116667     0.00022222
      643           0.483333   0.416667   0.150000     0.00022222
      644           0.483333   0.416667   0.183333     0.00022222
      645           0.483333   0.416667   0.216667     0.00022222
      646           0.483333   0.416667   0.250000     0.00022222
      647           0.483333   0.416667   0.283333     0.00022222
      648           0.483333   0.416667   0.316667     0.00022222
      649           0.483333   0.416667   0.350000     0.00022222
      650           0.483333   0.416667   0.383333     0.00022222
      651           0.483333   0.416667   0.416667     0.00011111
      652           0.483333   0.450000   0.016667     0.00022222
      653           0.483333   0.450000   0.050000     0.00022222
      654           0.483333   0.450000   0.083333     0.00022222
      655           0.483333   0.450000   0.116667     0.00022222
      656           0.483333   0.450000   0.150000     0.00022222
      657           0.483333   0.450000   0.183333     0.00022222
      658           0.483333   0.450000   0.216667     0.00022222
      659           0.483333   0.450000   0.250000     0.00022222
      660           0.483333   0.450000   0.283333     0.00022222
      661           0.483333   0.450000   0.316667     0.00022222
      662           0.483333   0.450000   0.350000     0.00022222
      663           0.483333   0.450000   0.383333     0.00022222
      664           0.483333   0.450000   0.416667     0.00022222
      665           0.483333   0.450000   0.450000     0.00011111
      666           0.483333   0.483333   0.016667     0.00011111
      667           0.483333   0.483333   0.050000     0.00011111
      668           0.483333   0.483333   0.083333     0.00011111
      669           0.483333   0.483333   0.116667     0.00011111
      670           0.483333   0.483333   0.150000     0.00011111
      671           0.483333   0.483333   0.183333     0.00011111
      672           0.483333   0.483333   0.216667     0.00011111
      673           0.483333   0.483333   0.250000     0.00011111
      674           0.483333   0.483333   0.283333     0.00011111
      675           0.483333   0.483333   0.316667     0.00011111
      676           0.483333   0.483333   0.350000     0.00011111
      677           0.483333   0.483333   0.383333     0.00011111
      678           0.483333   0.483333   0.416667     0.00011111
      679           0.483333   0.483333   0.450000     0.00011111
      680           0.483333   0.483333   0.483333     0.00003704
      681           0.516667   0.016667   0.016667     0.00011111
      682           0.516667   0.050000   0.016667     0.00022222
      683           0.516667   0.050000   0.050000     0.00011111
      684           0.516667   0.083333   0.016667     0.00022222
      685           0.516667   0.083333   0.050000     0.00022222
      686           0.516667   0.083333   0.083333     0.00011111
      687           0.516667   0.116667   0.016667     0.00022222
      688           0.516667   0.116667   0.050000     0.00022222
      689           0.516667   0.116667   0.083333     0.00022222
      690           0.516667   0.116667   0.116667     0.00011111
      691           0.516667   0.150000   0.016667     0.00022222
      692           0.516667   0.150000   0.050000     0.00022222
      693           0.516667   0.150000   0.083333     0.00022222
      694           0.516667   0.150000   0.116667     0.00022222
      695           0.516667   0.150000   0.150000     0.00011111
      696           0.516667   0.183333   0.016667     0.00022222
      697           0.516667   0.183333   0.050000     0.00022222
      698           0.516667   0.183333   0.083333     0.00022222
      699           0.516667   0.183333   0.116667     0.00022222
      700           0.516667   0.183333   0.150000     0.00022222
      701           0.516667   0.183333   0.183333     0.00011111
      702           0.516667   0.216667   0.016667     0.00022222
      703           0.516667   0.216667   0.050000     0.00022222
      704           0.516667   0.216667   0.083333     0.00022222
      705           0.516667   0.216667   0.116667     0.00022222
      706           0.516667   0.216667   0.150000     0.00022222
      707           0.516667   0.216667   0.183333     0.00022222
      708           0.516667   0.216667   0.216667     0.00011111
      709           0.516667   0.250000   0.016667     0.00022222
      710           0.516667   0.250000   0.050000     0.00022222
      711           0.516667   0.250000   0.083333     0.00022222
      712           0.516667   0.250000   0.116667     0.00022222
      713           0.516667   0.250000   0.150000     0.00022222
      714           0.516667   0.250000   0.183333     0.00022222
      715           0.516667   0.250000   0.216667     0.00022222
      716           0.516667   0.250000   0.250000     0.00011111
      717           0.516667   0.283333   0.016667     0.00022222
      718           0.516667   0.283333   0.050000     0.00022222
      719           0.516667   0.283333   0.083333     0.00022222
      720           0.516667   0.283333   0.116667     0.00022222
      721           0.516667   0.283333   0.150000     0.00022222
      722           0.516667   0.283333   0.183333     0.00022222
      723           0.516667   0.283333   0.216667     0.00022222
      724           0.516667   0.283333   0.250000     0.00022222
      725           0.516667   0.283333   0.283333     0.00011111
      726           0.516667   0.316667   0.016667     0.00022222
      727           0.516667   0.316667   0.050000     0.00022222
      728           0.516667   0.316667   0.083333     0.00022222
      729           0.516667   0.316667   0.116667     0.00022222
      730           0.516667   0.316667   0.150000     0.00022222
      731           0.516667   0.316667   0.183333     0.00022222
      732           0.516667   0.316667   0.216667     0.00022222
      733           0.516667   0.316667   0.250000     0.00022222
      734           0.516667   0.316667   0.283333     0.00022222
      735           0.516667   0.316667   0.316667     0.00011111
      736           0.516667   0.350000   0.016667     0.00022222
      737           0.516667   0.350000   0.050000     0.00022222
      738           0.516667   0.350000   0.083333     0.00022222
      739           0.516667   0.350000   0.116667     0.00022222
      740           0.516667   0.350000   0.150000     0.00022222
      741           0.516667   0.350000   0.183333     0.00022222
      742           0.516667   0.350000   0.216667     0.00022222
      743           0.516667   0.350000   0.250000     0.00022222
      744           0.516667   0.350000   0.283333     0.00022222
      745           0.516667   0.350000   0.316667     0.00022222
      746           0.516667   0.350000   0.350000     0.00011111
      747           0.516667   0.383333   0.016667     0.00022222
      748           0.516667   0.383333   0.050000     0.00022222
      749           0.516667   0.383333   0.083333     0.00022222
      750           0.516667   0.383333   0.116667     0.00022222
      751           0.516667   0.383333   0.150000     0.00022222
      752           0.516667   0.383333   0.183333     0.00022222
      753           0.516667   0.383333   0.216667     0.00022222
      754           0.516667   0.383333   0.250000     0.00022222
      755           0.516667   0.383333   0.283333     0.00022222
      756           0.516667   0.383333   0.316667     0.00022222
      757           0.516667   0.383333   0.350000     0.00022222
      758           0.516667   0.383333   0.383333     0.00011111
      759           0.516667   0.416667   0.016667     0.00022222
      760           0.516667   0.416667   0.050000     0.00022222
      761           0.516667   0.416667   0.083333     0.00022222
      762           0.516667   0.416667   0.116667     0.00022222
      763           0.516667   0.416667   0.150000     0.00022222
      764           0.516667   0.416667   0.183333     0.00022222
      765           0.516667   0.416667   0.216667     0.00022222
      766           0.516667   0.416667   0.250000     0.00022222
      767           0.516667   0.416667   0.283333     0.00022222
      768           0.516667   0.416667   0.316667     0.00022222
      769           0.516667   0.416667   0.350000     0.00022222
      770           0.516667   0.416667   0.383333     0.00022222
      771           0.516667   0.416667   0.416667     0.00011111
      772           0.516667   0.450000   0.016667     0.00022222
      773           0.516667   0.450000   0.050000     0.00022222
      774           0.516667   0.450000   0.083333     0.00022222
      775           0.516667   0.450000   0.116667     0.00022222
      776           0.516667   0.450000   0.150000     0.00022222
      777           0.516667   0.450000   0.183333     0.00022222
      778           0.516667   0.450000   0.216667     0.00022222
      779           0.516667   0.450000   0.250000     0.00022222
      780           0.516667   0.450000   0.283333     0.00022222
      781           0.516667   0.450000   0.316667     0.00022222
      782           0.516667   0.450000   0.350000     0.00022222
      783           0.516667   0.450000   0.383333     0.00022222
      784           0.516667   0.450000   0.416667     0.00022222
      785           0.516667   0.450000   0.450000     0.00011111
      786           0.516667   0.483333   0.016667     0.00022222
      787           0.516667   0.483333   0.050000     0.00022222
      788           0.516667   0.483333   0.083333     0.00022222
      789           0.516667   0.483333   0.116667     0.00022222
      790           0.516667   0.483333   0.150000     0.00022222
      791           0.516667   0.483333   0.183333     0.00022222
      792           0.516667   0.483333   0.216667     0.00022222
      793           0.516667   0.483333   0.250000     0.00022222
      794           0.516667   0.483333   0.283333     0.00022222
      795           0.516667   0.483333   0.316667     0.00022222
      796           0.516667   0.483333   0.350000     0.00022222
      797           0.516667   0.483333   0.383333     0.00022222
      798           0.516667   0.483333   0.416667     0.00022222
      799           0.516667   0.483333   0.450000     0.00022222
      800           0.516667   0.483333   0.483333     0.00011111
      801           0.516667   0.516667   0.016667     0.00011111
      802           0.516667   0.516667   0.050000     0.00011111
      803           0.516667   0.516667   0.083333     0.00011111
      804           0.516667   0.516667   0.116667     0.00011111
      805           0.516667   0.516667   0.150000     0.00011111
      806           0.516667   0.516667   0.183333     0.00011111
      807           0.516667   0.516667   0.216667     0.00011111
      808           0.516667   0.516667   0.250000     0.00011111
      809           0.516667   0.516667   0.283333     0.00011111
      810           0.516667   0.516667   0.316667     0.00011111
      811           0.516667   0.516667   0.350000     0.00011111
      812           0.516667   0.516667   0.383333     0.00011111
      813           0.516667   0.516667   0.416667     0.00011111
      814           0.516667   0.516667   0.450000     0.00011111
      815           0.516667   0.516667   0.483333     0.00011111
      816           0.516667   0.516667   0.516667     0.00003704
      817           0.550000   0.016667   0.016667     0.00011111
      818           0.550000   0.050000   0.016667     0.00022222
      819           0.550000   0.050000   0.050000     0.00011111
      820           0.550000   0.083333   0.016667     0.00022222
      821           0.550000   0.083333   0.050000     0.00022222
      822           0.550000   0.083333   0.083333     0.00011111
      823           0.550000   0.116667   0.016667     0.00022222
      824           0.550000   0.116667   0.050000     0.00022222
      825           0.550000   0.116667   0.083333     0.00022222
      826           0.550000   0.116667   0.116667     0.00011111
      827           0.550000   0.150000   0.016667     0.00022222
      828           0.550000   0.150000   0.050000     0.00022222
      829           0.550000   0.150000   0.083333     0.00022222
      830           0.550000   0.150000   0.116667     0.00022222
      831           0.550000   0.150000   0.150000     0.00011111
      832           0.550000   0.183333   0.016667     0.00022222
      833           0.550000   0.183333   0.050000     0.00022222
      834           0.550000   0.183333   0.083333     0.00022222
      835           0.550000   0.183333   0.116667     0.00022222
      836           0.550000   0.183333   0.150000     0.00022222
      837           0.550000   0.183333   0.183333     0.00011111
      838           0.550000   0.216667   0.016667     0.00022222
      839           0.550000   0.216667   0.050000     0.00022222
      840           0.550000   0.216667   0.083333     0.00022222
      841           0.550000   0.216667   0.116667     0.00022222
      842           0.550000   0.216667   0.150000     0.00022222
      843           0.550000   0.216667   0.183333     0.00022222
      844           0.550000   0.216667   0.216667     0.00011111
      845           0.550000   0.250000   0.016667     0.00022222
      846           0.550000   0.250000   0.050000     0.00022222
      847           0.550000   0.250000   0.083333     0.00022222
      848           0.550000   0.250000   0.116667     0.00022222
      849           0.550000   0.250000   0.150000     0.00022222
      850           0.550000   0.250000   0.183333     0.00022222
      851           0.550000   0.250000   0.216667     0.00022222
      852           0.550000   0.250000   0.250000     0.00011111
      853           0.550000   0.283333   0.016667     0.00022222
      854           0.550000   0.283333   0.050000     0.00022222
      855           0.550000   0.283333   0.083333     0.00022222
      856           0.550000   0.283333   0.116667     0.00022222
      857           0.550000   0.283333   0.150000     0.00022222
      858           0.550000   0.283333   0.183333     0.00022222
      859           0.550000   0.283333   0.216667     0.00022222
      860           0.550000   0.283333   0.250000     0.00022222
      861           0.550000   0.283333   0.283333     0.00011111
      862           0.550000   0.316667   0.016667     0.00022222
      863           0.550000   0.316667   0.050000     0.00022222
      864           0.550000   0.316667   0.083333     0.00022222
      865           0.550000   0.316667   0.116667     0.00022222
      866           0.550000   0.316667   0.150000     0.00022222
      867           0.550000   0.316667   0.183333     0.00022222
      868           0.550000   0.316667   0.216667     0.00022222
      869           0.550000   0.316667   0.250000     0.00022222
      870           0.550000   0.316667   0.283333     0.00022222
      871           0.550000   0.316667   0.316667     0.00011111
      872           0.550000   0.350000   0.016667     0.00022222
      873           0.550000   0.350000   0.050000     0.00022222
      874           0.550000   0.350000   0.083333     0.00022222
      875           0.550000   0.350000   0.116667     0.00022222
      876           0.550000   0.350000   0.150000     0.00022222
      877           0.550000   0.350000   0.183333     0.00022222
      878           0.550000   0.350000   0.216667     0.00022222
      879           0.550000   0.350000   0.250000     0.00022222
      880           0.550000   0.350000   0.283333     0.00022222
      881           0.550000   0.350000   0.316667     0.00022222
      882           0.550000   0.350000   0.350000     0.00011111
      883           0.550000   0.383333   0.016667     0.00022222
      884           0.550000   0.383333   0.050000     0.00022222
      885           0.550000   0.383333   0.083333     0.00022222
      886           0.550000   0.383333   0.116667     0.00022222
      887           0.550000   0.383333   0.150000     0.00022222
      888           0.550000   0.383333   0.183333     0.00022222
      889           0.550000   0.383333   0.216667     0.00022222
      890           0.550000   0.383333   0.250000     0.00022222
      891           0.550000   0.383333   0.283333     0.00022222
      892           0.550000   0.383333   0.316667     0.00022222
      893           0.550000   0.383333   0.350000     0.00022222
      894           0.550000   0.383333   0.383333     0.00011111
      895           0.550000   0.416667   0.016667     0.00022222
      896           0.550000   0.416667   0.050000     0.00022222
      897           0.550000   0.416667   0.083333     0.00022222
      898           0.550000   0.416667   0.116667     0.00022222
      899           0.550000   0.416667   0.150000     0.00022222
      900           0.550000   0.416667   0.183333     0.00022222
      901           0.550000   0.416667   0.216667     0.00022222
      902           0.550000   0.416667   0.250000     0.00022222
      903           0.550000   0.416667   0.283333     0.00022222
      904           0.550000   0.416667   0.316667     0.00022222
      905           0.550000   0.416667   0.350000     0.00022222
      906           0.550000   0.416667   0.383333     0.00022222
      907           0.550000   0.416667   0.416667     0.00011111
      908           0.550000   0.450000   0.016667     0.00022222
      909           0.550000   0.450000   0.050000     0.00022222
      910           0.550000   0.450000   0.083333     0.00022222
      911           0.550000   0.450000   0.116667     0.00022222
      912           0.550000   0.450000   0.150000     0.00022222
      913           0.550000   0.450000   0.183333     0.00022222
      914           0.550000   0.450000   0.216667     0.00022222
      915           0.550000   0.450000   0.250000     0.00022222
      916           0.550000   0.450000   0.283333     0.00022222
      917           0.550000   0.450000   0.316667     0.00022222
      918           0.550000   0.450000   0.350000     0.00022222
      919           0.550000   0.450000   0.383333     0.00022222
      920           0.550000   0.450000   0.416667     0.00022222
      921           0.550000   0.450000   0.450000     0.00011111
      922           0.550000   0.483333   0.016667     0.00022222
      923           0.550000   0.483333   0.050000     0.00022222
      924           0.550000   0.483333   0.083333     0.00022222
      925           0.550000   0.483333   0.116667     0.00022222
      926           0.550000   0.483333   0.150000     0.00022222
      927           0.550000   0.483333   0.183333     0.00022222
      928           0.550000   0.483333   0.216667     0.00022222
      929           0.550000   0.483333   0.250000     0.00022222
      930           0.550000   0.483333   0.283333     0.00022222
      931           0.550000   0.483333   0.316667     0.00022222
      932           0.550000   0.483333   0.350000     0.00022222
      933           0.550000   0.483333   0.383333     0.00022222
      934           0.550000   0.483333   0.416667     0.00022222
      935           0.550000   0.483333   0.450000     0.00022222
      936           0.550000   0.483333   0.483333     0.00011111
      937           0.550000   0.516667   0.016667     0.00022222
      938           0.550000   0.516667   0.050000     0.00022222
      939           0.550000   0.516667   0.083333     0.00022222
      940           0.550000   0.516667   0.116667     0.00022222
      941           0.550000   0.516667   0.150000     0.00022222
      942           0.550000   0.516667   0.183333     0.00022222
      943           0.550000   0.516667   0.216667     0.00022222
      944           0.550000   0.516667   0.250000     0.00022222
      945           0.550000   0.516667   0.283333     0.00022222
      946           0.550000   0.516667   0.316667     0.00022222
      947           0.550000   0.516667   0.350000     0.00022222
      948           0.550000   0.516667   0.383333     0.00022222
      949           0.550000   0.516667   0.416667     0.00022222
      950           0.550000   0.516667   0.450000     0.00022222
      951           0.550000   0.516667   0.483333     0.00022222
      952           0.550000   0.516667   0.516667     0.00011111
      953           0.550000   0.550000   0.016667     0.00011111
      954           0.550000   0.550000   0.050000     0.00011111
      955           0.550000   0.550000   0.083333     0.00011111
      956           0.550000   0.550000   0.116667     0.00011111
      957           0.550000   0.550000   0.150000     0.00011111
      958           0.550000   0.550000   0.183333     0.00011111
      959           0.550000   0.550000   0.216667     0.00011111
      960           0.550000   0.550000   0.250000     0.00011111
      961           0.550000   0.550000   0.283333     0.00011111
      962           0.550000   0.550000   0.316667     0.00011111
      963           0.550000   0.550000   0.350000     0.00011111
      964           0.550000   0.550000   0.383333     0.00011111
      965           0.550000   0.550000   0.416667     0.00011111
      966           0.550000   0.550000   0.450000     0.00011111
      967           0.550000   0.550000   0.483333     0.00011111
      968           0.550000   0.550000   0.516667     0.00011111
      969           0.550000   0.550000   0.550000     0.00003704
      970           0.583333   0.016667   0.016667     0.00011111
      971           0.583333   0.050000   0.016667     0.00022222
      972           0.583333   0.050000   0.050000     0.00011111
      973           0.583333   0.083333   0.016667     0.00022222
      974           0.583333   0.083333   0.050000     0.00022222
      975           0.583333   0.083333   0.083333     0.00011111
      976           0.583333   0.116667   0.016667     0.00022222
      977           0.583333   0.116667   0.050000     0.00022222
      978           0.583333   0.116667   0.083333     0.00022222
      979           0.583333   0.116667   0.116667     0.00011111
      980           0.583333   0.150000   0.016667     0.00022222
      981           0.583333   0.150000   0.050000     0.00022222
      982           0.583333   0.150000   0.083333     0.00022222
      983           0.583333   0.150000   0.116667     0.00022222
      984           0.583333   0.150000   0.150000     0.00011111
      985           0.583333   0.183333   0.016667     0.00022222
      986           0.583333   0.183333   0.050000     0.00022222
      987           0.583333   0.183333   0.083333     0.00022222
      988           0.583333   0.183333   0.116667     0.00022222
      989           0.583333   0.183333   0.150000     0.00022222
      990           0.583333   0.183333   0.183333     0.00011111
      991           0.583333   0.216667   0.016667     0.00022222
      992           0.583333   0.216667   0.050000     0.00022222
      993           0.583333   0.216667   0.083333     0.00022222
      994           0.583333   0.216667   0.116667     0.00022222
      995           0.583333   0.216667   0.150000     0.00022222
      996           0.583333   0.216667   0.183333     0.00022222
      997           0.583333   0.216667   0.216667     0.00011111
      998           0.583333   0.250000   0.016667     0.00022222
      999           0.583333   0.250000   0.050000     0.00022222
     1000           0.583333   0.250000   0.083333     0.00022222
     1001           0.583333   0.250000   0.116667     0.00022222
     1002           0.583333   0.250000   0.150000     0.00022222
     1003           0.583333   0.250000   0.183333     0.00022222
     1004           0.583333   0.250000   0.216667     0.00022222
     1005           0.583333   0.250000   0.250000     0.00011111
     1006           0.583333   0.283333   0.016667     0.00022222
     1007           0.583333   0.283333   0.050000     0.00022222
     1008           0.583333   0.283333   0.083333     0.00022222
     1009           0.583333   0.283333   0.116667     0.00022222
     1010           0.583333   0.283333   0.150000     0.00022222
     1011           0.583333   0.283333   0.183333     0.00022222
     1012           0.583333   0.283333   0.216667     0.00022222
     1013           0.583333   0.283333   0.250000     0.00022222
     1014           0.583333   0.283333   0.283333     0.00011111
     1015           0.583333   0.316667   0.016667     0.00022222
     1016           0.583333   0.316667   0.050000     0.00022222
     1017           0.583333   0.316667   0.083333     0.00022222
     1018           0.583333   0.316667   0.116667     0.00022222
     1019           0.583333   0.316667   0.150000     0.00022222
     1020           0.583333   0.316667   0.183333     0.00022222
     1021           0.583333   0.316667   0.216667     0.00022222
     1022           0.583333   0.316667   0.250000     0.00022222
     1023           0.583333   0.316667   0.283333     0.00022222
     1024           0.583333   0.316667   0.316667     0.00011111
     1025           0.583333   0.350000   0.016667     0.00022222
     1026           0.583333   0.350000   0.050000     0.00022222
     1027           0.583333   0.350000   0.083333     0.00022222
     1028           0.583333   0.350000   0.116667     0.00022222
     1029           0.583333   0.350000   0.150000     0.00022222
     1030           0.583333   0.350000   0.183333     0.00022222
     1031           0.583333   0.350000   0.216667     0.00022222
     1032           0.583333   0.350000   0.250000     0.00022222
     1033           0.583333   0.350000   0.283333     0.00022222
     1034           0.583333   0.350000   0.316667     0.00022222
     1035           0.583333   0.350000   0.350000     0.00011111
     1036           0.583333   0.383333   0.016667     0.00022222
     1037           0.583333   0.383333   0.050000     0.00022222
     1038           0.583333   0.383333   0.083333     0.00022222
     1039           0.583333   0.383333   0.116667     0.00022222
     1040           0.583333   0.383333   0.150000     0.00022222
     1041           0.583333   0.383333   0.183333     0.00022222
     1042           0.583333   0.383333   0.216667     0.00022222
     1043           0.583333   0.383333   0.250000     0.00022222
     1044           0.583333   0.383333   0.283333     0.00022222
     1045           0.583333   0.383333   0.316667     0.00022222
     1046           0.583333   0.383333   0.350000     0.00022222
     1047           0.583333   0.383333   0.383333     0.00011111
     1048           0.583333   0.416667   0.016667     0.00022222
     1049           0.583333   0.416667   0.050000     0.00022222
     1050           0.583333   0.416667   0.083333     0.00022222
     1051           0.583333   0.416667   0.116667     0.00022222
     1052           0.583333   0.416667   0.150000     0.00022222
     1053           0.583333   0.416667   0.183333     0.00022222
     1054           0.583333   0.416667   0.216667     0.00022222
     1055           0.583333   0.416667   0.250000     0.00022222
     1056           0.583333   0.416667   0.283333     0.00022222
     1057           0.583333   0.416667   0.316667     0.00022222
     1058           0.583333   0.416667   0.350000     0.00022222
     1059           0.583333   0.416667   0.383333     0.00022222
     1060           0.583333   0.416667   0.416667     0.00011111
     1061           0.583333   0.450000   0.016667     0.00022222
     1062           0.583333   0.450000   0.050000     0.00022222
     1063           0.583333   0.450000   0.083333     0.00022222
     1064           0.583333   0.450000   0.116667     0.00022222
     1065           0.583333   0.450000   0.150000     0.00022222
     1066           0.583333   0.450000   0.183333     0.00022222
     1067           0.583333   0.450000   0.216667     0.00022222
     1068           0.583333   0.450000   0.250000     0.00022222
     1069           0.583333   0.450000   0.283333     0.00022222
     1070           0.583333   0.450000   0.316667     0.00022222
     1071           0.583333   0.450000   0.350000     0.00022222
     1072           0.583333   0.450000   0.383333     0.00022222
     1073           0.583333   0.450000   0.416667     0.00022222
     1074           0.583333   0.450000   0.450000     0.00011111
     1075           0.583333   0.483333   0.016667     0.00022222
     1076           0.583333   0.483333   0.050000     0.00022222
     1077           0.583333   0.483333   0.083333     0.00022222
     1078           0.583333   0.483333   0.116667     0.00022222
     1079           0.583333   0.483333   0.150000     0.00022222
     1080           0.583333   0.483333   0.183333     0.00022222
     1081           0.583333   0.483333   0.216667     0.00022222
     1082           0.583333   0.483333   0.250000     0.00022222
     1083           0.583333   0.483333   0.283333     0.00022222
     1084           0.583333   0.483333   0.316667     0.00022222
     1085           0.583333   0.483333   0.350000     0.00022222
     1086           0.583333   0.483333   0.383333     0.00022222
     1087           0.583333   0.483333   0.416667     0.00022222
     1088           0.583333   0.483333   0.450000     0.00022222
     1089           0.583333   0.483333   0.483333     0.00011111
     1090           0.583333   0.516667   0.016667     0.00022222
     1091           0.583333   0.516667   0.050000     0.00022222
     1092           0.583333   0.516667   0.083333     0.00022222
     1093           0.583333   0.516667   0.116667     0.00022222
     1094           0.583333   0.516667   0.150000     0.00022222
     1095           0.583333   0.516667   0.183333     0.00022222
     1096           0.583333   0.516667   0.216667     0.00022222
     1097           0.583333   0.516667   0.250000     0.00022222
     1098           0.583333   0.516667   0.283333     0.00022222
     1099           0.583333   0.516667   0.316667     0.00022222
     1100           0.583333   0.516667   0.350000     0.00022222
     1101           0.583333   0.516667   0.383333     0.00022222
     1102           0.583333   0.516667   0.416667     0.00022222
     1103           0.583333   0.516667   0.450000     0.00022222
     1104           0.583333   0.516667   0.483333     0.00022222
     1105           0.583333   0.516667   0.516667     0.00011111
     1106           0.583333   0.550000   0.016667     0.00022222
     1107           0.583333   0.550000   0.050000     0.00022222
     1108           0.583333   0.550000   0.083333     0.00022222
     1109           0.583333   0.550000   0.116667     0.00022222
     1110           0.583333   0.550000   0.150000     0.00022222
     1111           0.583333   0.550000   0.183333     0.00022222
     1112           0.583333   0.550000   0.216667     0.00022222
     1113           0.583333   0.550000   0.250000     0.00022222
     1114           0.583333   0.550000   0.283333     0.00022222
     1115           0.583333   0.550000   0.316667     0.00022222
     1116           0.583333   0.550000   0.350000     0.00022222
     1117           0.583333   0.550000   0.383333     0.00022222
     1118           0.583333   0.550000   0.416667     0.00022222
     1119           0.583333   0.550000   0.450000     0.00022222
     1120           0.583333   0.550000   0.483333     0.00022222
     1121           0.583333   0.550000   0.516667     0.00022222
     1122           0.583333   0.550000   0.550000     0.00011111
     1123           0.583333   0.583333   0.016667     0.00011111
     1124           0.583333   0.583333   0.050000     0.00011111
     1125           0.583333   0.583333   0.083333     0.00011111
     1126           0.583333   0.583333   0.116667     0.00011111
     1127           0.583333   0.583333   0.150000     0.00011111
     1128           0.583333   0.583333   0.183333     0.00011111
     1129           0.583333   0.583333   0.216667     0.00011111
     1130           0.583333   0.583333   0.250000     0.00011111
     1131           0.583333   0.583333   0.283333     0.00011111
     1132           0.583333   0.583333   0.316667     0.00011111
     1133           0.583333   0.583333   0.350000     0.00011111
     1134           0.583333   0.583333   0.383333     0.00011111
     1135           0.583333   0.583333   0.416667     0.00011111
     1136           0.583333   0.583333   0.450000     0.00011111
     1137           0.583333   0.583333   0.483333     0.00011111
     1138           0.583333   0.583333   0.516667     0.00011111
     1139           0.583333   0.583333   0.550000     0.00011111
     1140           0.583333   0.583333   0.583333     0.00003704
     1141           0.616667   0.016667   0.016667     0.00011111
     1142           0.616667   0.050000   0.016667     0.00022222
     1143           0.616667   0.050000   0.050000     0.00011111
     1144           0.616667   0.083333   0.016667     0.00022222
     1145           0.616667   0.083333   0.050000     0.00022222
     1146           0.616667   0.083333   0.083333     0.00011111
     1147           0.616667   0.116667   0.016667     0.00022222
     1148           0.616667   0.116667   0.050000     0.00022222
     1149           0.616667   0.116667   0.083333     0.00022222
     1150           0.616667   0.116667   0.116667     0.00011111
     1151           0.616667   0.150000   0.016667     0.00022222
     1152           0.616667   0.150000   0.050000     0.00022222
     1153           0.616667   0.150000   0.083333     0.00022222
     1154           0.616667   0.150000   0.116667     0.00022222
     1155           0.616667   0.150000   0.150000     0.00011111
[...]
  465.00000 |*********                                                     0.001
  466.00000 |*********                                                     0.001
  467.00000 |*********                                                     0.001
  468.00000 |********                                                      0.001
  469.00000 |********                                                      0.001
  470.00000 |********                                                      0.001
  471.00000 |********                                                      0.001
  472.00000 |********                                                      0.001
  473.00000 |********                                                      0.001
  474.00000 |********                                                      0.001
  475.00000 |********                                                      0.001
  476.00000 |********                                                      0.001
  477.00000 |********                                                      0.001
  478.00000 |********                                                      0.001
  479.00000 |********                                                      0.001
  480.00000 |********                                                      0.001
  481.00000 |********                                                      0.001
  482.00000 |********                                                      0.001
  483.00000 |********                                                      0.001
  484.00000 |********                                                      0.001
  485.00000 |********                                                      0.001
  486.00000 |********                                                      0.001
  487.00000 |********                                                      0.001
  488.00000 |********                                                      0.001
  489.00000 |********                                                      0.001
  490.00000 |********                                                      0.001
  491.00000 |********                                                      0.001
  492.00000 |********                                                      0.001
  493.00000 |********                                                      0.001
  494.00000 |********                                                      0.001
  495.00000 |********                                                      0.001
  496.00000 |********                                                      0.001
  497.00000 |********                                                      0.001
  498.00000 |********                                                      0.001
  499.00000 |********                                                      0.001
  500.00000 |********                                                      0.001
  501.00000 |********                                                      0.001
  502.00000 |********                                                      0.001
  503.00000 |********                                                      0.001
  504.00000 |********                                                      0.001
  505.00000 |********                                                      0.001
  506.00000 |********                                                      0.001
  507.00000 |********                                                      0.001
  508.00000 |********                                                      0.001
  509.00000 |********                                                      0.001
  510.00000 |********                                                      0.001
  511.00000 |********                                                      0.001
  512.00000 |********                                                      0.001
  513.00000 |********                                                      0.001
  514.00000 |********                                                      0.001
  515.00000 |********                                                      0.001
  516.00000 |********                                                      0.001
  517.00000 |********                                                      0.001
  518.00000 |********                                                      0.001
  519.00000 |********                                                      0.001
  520.00000 |********                                                      0.001
  521.00000 |********                                                      0.001
  522.00000 |********                                                      0.001
  523.00000 |********                                                      0.001
  524.00000 |********                                                      0.001
  525.00000 |********                                                      0.001
  526.00000 |********                                                      0.001
  527.00000 |********                                                      0.001
  528.00000 |********                                                      0.001
  529.00000 |********                                                      0.001
  530.00000 |********                                                      0.001
  531.00000 |********                                                      0.001
  532.00000 |********                                                      0.001
  533.00000 |********                                                      0.001
  534.00000 |********                                                      0.001
  535.00000 |********                                                      0.001
  536.00000 |********                                                      0.001
  537.00000 |********                                                      0.001
  538.00000 |********                                                      0.001
  539.00000 |********                                                      0.001
  540.00000 |********                                                      0.001
  541.00000 |********                                                      0.001
  542.00000 |*********                                                     0.001
  543.00000 |*********                                                     0.001
  544.00000 |*********                                                     0.001
  545.00000 |*********                                                     0.001
  546.00000 |*********                                                     0.001
  547.00000 |*********                                                     0.001
  548.00000 |*********                                                     0.001
  549.00000 |*********                                                     0.001
  550.00000 |*********                                                     0.001
  551.00000 |*********                                                     0.001
  552.00000 |*********                                                     0.001
  553.00000 |*********                                                     0.001
  554.00000 |*********                                                     0.001
  555.00000 |*********                                                     0.001
  556.00000 |*********                                                     0.001
  557.00000 |**********                                                    0.001
  558.00000 |**********                                                    0.001
  559.00000 |**********                                                    0.001
  560.00000 |**********                                                    0.001
  561.00000 |**********                                                    0.001
  562.00000 |**********                                                    0.001
  563.00000 |**********                                                    0.001
  564.00000 |**********                                                    0.001
  565.00000 |**********                                                    0.001
  566.00000 |**********                                                    0.001
  567.00000 |**********                                                    0.001
  568.00000 |**********                                                    0.001
  569.00000 |**********                                                    0.001
  570.00000 |**********                                                    0.001
  571.00000 |**********                                                    0.001
  572.00000 |*********                                                     0.001
  573.00000 |*********                                                     0.001
  574.00000 |*********                                                     0.001
  575.00000 |********                                                      0.001
  576.00000 |********                                                      0.001
  577.00000 |********                                                      0.001
  578.00000 |*******                                                       0.001
  579.00000 |*******                                                       0.001
  580.00000 |*******                                                       0.001
  581.00000 |******                                                        0.001
  582.00000 |******                                                        0.001
  583.00000 |******                                                        0.001
  584.00000 |******                                                        0.001
  585.00000 |******                                                        0.001
  586.00000 |*****                                                         0.001
  587.00000 |*****                                                         0.001
  588.00000 |*****                                                         0.001
  589.00000 |*****                                                         0.001
  590.00000 |*****                                                         0.001
  591.00000 |*****                                                         0.001
  592.00000 |*****                                                         0.001
  593.00000 |****                                                          0.001
  594.00000 |****                                                          0.001
  595.00000 |****                                                          0.000
  596.00000 |****                                                          0.000
  597.00000 |****                                                          0.000
  598.00000 |****                                                          0.000
  599.00000 |****                                                          0.000
  600.00000 |****                                                          0.000
  601.00000 |****                                                          0.000
  602.00000 |***                                                           0.000
  603.00000 |***                                                           0.000
  604.00000 |***                                                           0.000
  605.00000 |***                                                           0.000
  606.00000 |***                                                           0.000
  607.00000 |***                                                           0.000
  608.00000 |***                                                           0.000
  609.00000 |***                                                           0.000
  610.00000 |***                                                           0.000
  611.00000 |***                                                           0.000
  612.00000 |***                                                           0.000
  613.00000 |***                                                           0.000
  614.00000 |***                                                           0.000
  615.00000 |**                                                            0.000
  616.00000 |**                                                            0.000
  617.00000 |**                                                            0.000
  618.00000 |**                                                            0.000
  619.00000 |**                                                            0.000
  620.00000 |**                                                            0.000
  621.00000 |**                                                            0.000
  622.00000 |**                                                            0.000
  623.00000 |**                                                            0.000
  624.00000 |**                                                            0.000
  625.00000 |**                                                            0.000
  626.00000 |**                                                            0.000
  627.00000 |**                                                            0.000
  628.00000 |**                                                            0.000
  629.00000 |**                                                            0.000
  630.00000 |**                                                            0.000
  631.00000 |*                                                             0.000
  632.00000 |*                                                             0.000
  633.00000 |*                                                             0.000
  634.00000 |*                                                             0.000
  635.00000 |*                                                             0.000
  636.00000 |*                                                             0.000
  637.00000 |*                                                             0.000
  638.00000 |*                                                             0.000
  639.00000 |*                                                             0.000
  640.00000 |*                                                             0.000
  641.00000 |*                                                             0.000
  642.00000 |*                                                             0.000
  643.00000 |*                                                             0.000
  644.00000 |*                                                             0.000
  645.00000 |*                                                             0.000
  646.00000 |*                                                             0.000
  647.00000 |*                                                             0.000
  648.00000 |*                                                             0.000
  649.00000 |                                                              0.000
  650.00000 |                                                              0.000
  651.00000 |                                                              0.000
  652.00000 |                                                              0.000
  653.00000 |                                                              0.000
  654.00000 |                                                              0.000
  655.00000 |                                                              0.000
  656.00000 |                                                              0.000
  657.00000 |                                                              0.000
  658.00000 |                                                              0.000
  659.00000 |                                                              0.000
  660.00000 |                                                              0.000
  661.00000 |                                                              0.000
  662.00000 |                                                              0.000
  663.00000 |                                                              0.000
  664.00000 |                                                              0.000
  665.00000 |                                                              0.000
  666.00000 |                                                              0.000
  667.00000 |                                                              0.000
  668.00000 |                                                              0.000
  669.00000 |                                                              0.000
  670.00000 |                                                              0.000
  671.00000 |                                                              0.000
  672.00000 |                                                              0.000
  673.00000 |                                                              0.000
  674.00000 |                                                              0.000
  675.00000 |                                                              0.000
  676.00000 |                                                              0.000
  677.00000 |                                                              0.000
  678.00000 |                                                              0.000
  679.00000 |                                                              0.000
  680.00000 |                                                              0.000
  681.00000 |                                                              0.000
  682.00000 |                                                              0.000
  683.00000 |                                                              0.000
  684.00000 |                                                              0.000
  685.00000 |                                                              0.000
  686.00000 |                                                              0.000
  687.00000 |                                                              0.000
  688.00000 |                                                              0.000
  689.00000 |                                                              0.000
  690.00000 |                                                              0.000
  691.00000 |                                                              0.000
  692.00000 |                                                              0.000
  693.00000 |                                                              0.000
--------------------------------------------------------------------------------




  Phonon density of states written as DOS.dens                                                                                                                



  Time to end of properties =       3.7238 seconds


  Peak dynamic memory used =       5.57 MB 


  Timing analysis for GULP :

--------------------------------------------------------------------------------
  Task / Subroutine                                          Time (Seconds)
--------------------------------------------------------------------------------
  Calculation of reciprocal space energy and derivatives          0.5588
  Calculation of real space energy and derivatives                2.6429
  Calculation of phonons                                          3.3260
  Calculation of matrix diagonalisation                           0.0195
  Calculation of matrix inversion                                 0.0080
  Disk read/write operations to scratch files                     0.0033
  Symmetry generation of equivalent positions                     0.0019
--------------------------------------------------------------------------------
  Total CPU time                                                  3.7238
--------------------------------------------------------------------------------


  Job Finished at 19:25.27 27th July       2022                               

