********************************************************************************
*                       GENERAL UTILITY LATTICE PROGRAM                        *
*                                 Julian Gale                                  *
*                       Curtin Institute for Computation                       *
*                    School of Molecular and Life Sciences                     *
*                    Curtin University, Western Australia                      *
********************************************************************************
* Version = 6.1.0 * Last modified =   8th July 2022                            *
********************************************************************************
*  optimise     - perform optimisation run                                     *
*  conp         - constant pressure calculation                                *
*  property     - calculate properties for final geometry                      *
********************************************************************************

  Job Started  at 19:52.52 27th July       2022                               

  Number of CPUs =     1


  Total number of configurations input =      1

********************************************************************************
*  Input for Configuration =   1                                               *
********************************************************************************

  Formula = MgO                                                         

  Number of irreducible atoms/shells =       4


  Total number atoms/shells =       4

  Dimensionality = 3               :  Bulk   


  Symmetry :

  Crystal family                   :  Cubic       
  Crystal class  (Groth - 1921)    :  Cubic Hexakisoctahedral              

  Space group (centrosymmetric)    :  F M 3 M         

  Patterson group                  :  F m -3 m 

  Cartesian lattice vectors (Angstroms) :

        0.000000    2.106000    2.106000
        2.106000    0.000000    2.106000
        2.106000    2.106000    0.000000

  Primitive cell parameters :            Full cell parameters :

  a =   2.9783    alpha =  60.0000       a =   4.2120    alpha =  90.0000
  b =   2.9783    beta  =  60.0000       b =   4.2120    beta  =  90.0000
  c =   2.9783    gamma =  60.0000       c =   4.2120    gamma =  90.0000

  Initial volumes (Angstroms**3):

  Primitive cell =          18.681214    Full cell =          74.724856

  Temperature of configuration =   0.00     K 

  Pressure of configuration =         0.000 GPa 

  Fractional coordinates of asymmetric unit :

--------------------------------------------------------------------------------
   No.  Atomic       x           y          z         Charge      Occupancy
        Label      (Frac)      (Frac)     (Frac)        (e)         (Frac)  
--------------------------------------------------------------------------------
      1 Mg    c    0.000000    0.000000    0.000000     1.58000    1.000000    
      2 O     c    0.500000    0.500000    0.500000     0.51300    1.000000    
      3 Mg    s    0.000000    0.000000    0.000000     0.42000    1.000000    
      4 O     s    0.500000    0.500000    0.500000    -2.51300    1.000000    
--------------------------------------------------------------------------------


  Constraints : 

--------------------------------------------------------------------------------
  Constraint no.      Unconstrained     Constrained    Coefficient    Offset
                         Variable         Variable
--------------------------------------------------------------------------------
           1              Strain 1        Strain 2       1.00000      0.0000
           2              Strain 1        Strain 3       1.00000      0.0000
--------------------------------------------------------------------------------


********************************************************************************
*  General input information                                                   *
********************************************************************************

  Species output for all configurations : 

--------------------------------------------------------------------------------
  Species    Type    Atomic    Atomic    Charge       Radii (Angs)     Library
                     Number     Mass       (e)     Cova   Ionic  VDW   Symbol
--------------------------------------------------------------------------------
    Mg       Core       12      24.31   1.580000   1.100  0.000  1.640          
    Mg       Shell      12       0.00   0.420000   1.100  0.000  1.640          
    O        Core        8      16.00   0.513000   0.730  0.000  1.360          
    O        Shell       8       0.00  -2.513000   0.730  0.000  1.360          
--------------------------------------------------------------------------------


  Lattice summation method               =    Ewald          (3-D)
                                         =    Parry          (2-D)
                                         =    Saunders et al (1-D)
  Accuracy factor for lattice sums       =   12.000


  Analytic derivatives to be used

  Time limit = Infinity

  Maximum range for interatomic potentials =    100000.000000 Angstroms

  General interatomic potentials :

--------------------------------------------------------------------------------
Atom  Types   Potential      Parameter       Value         Units   Cutoffs(Ang)
  1     2                                                            Min /  Max 
--------------------------------------------------------------------------------
O    s Mg   s Buckingham    Buckingham A     2457.2430    eV        0.000 10.000
                            Buckingham rho  0.26100000    Ang       
                            Buckingham C     0.0000000    eV*Ang^6  
--------------------------------------------------------------------------------
O    s O    s Buckingham    Buckingham A     25.410000    eV        0.000 12.000
                            Buckingham rho  0.69370000    Ang       
                            Buckingham C     32.320000    eV*Ang^6  
--------------------------------------------------------------------------------
Mg   c Mg   s Spring (c-s)  Spring k 2       349.95000    eV*Ang^-2 0.000  0.800
                            Spring k 4       0.0000000    eV*Ang^-4 
--------------------------------------------------------------------------------
O    c O    s Spring (c-s)  Spring k 2       20.530000    eV*Ang^-2 0.000  0.800
                            Spring k 4       0.0000000    eV*Ang^-4 
--------------------------------------------------------------------------------

********************************************************************************
*  Output for configuration   1                                                *
********************************************************************************


  Components of energy : 

--------------------------------------------------------------------------------
  Interatomic potentials     =           6.80073398 eV    
  Monopole - monopole (real) =          -3.83584266 eV    
  Monopole - monopole (recip)=         -43.95999390 eV    
  Monopole - monopole (total)=         -47.79583656 eV    
--------------------------------------------------------------------------------
  Total lattice energy : 
    Primitive unit cell      =         -40.99510259 eV    
    Non-primitive unit cell  =        -163.98041034 eV    
--------------------------------------------------------------------------------
  Total lattice energy (in kJmol-1): 
    Primitive unit cell      =           -3955.4007 kJ/(mole unit cells)
    Non-primitive unit cell  =          -15821.6029 kJ/(mole unit cells)
--------------------------------------------------------------------------------


  Number of variables =        1

  Maximum number of calculations  =          1000
  Maximum Hessian update interval =            10
  Maximum step size               =   1.000000000
  Maximum parameter tolerance     =   0.000010000
  Maximum function  tolerance     =   0.000010000
  Maximum gradient  tolerance     =   0.001000000
  Maximum gradient  component     =   0.010000000

  Symmetry constrained optimisation

  Symmetry used for second derivatives

  Cell parameters to be optimised using strains

  Newton-Raphson optimiser to be used

  BFGS hessian update to be used

  Lower half triangular hessian to be used

  Start of bulk optimisation :

  Cycle:      0 Energy:       -40.995103  Gnorm:      0.362940  CPU:    0.015
  ** Hessian calculated **
  Cycle:      1 Energy:       -40.995360  Gnorm:      0.000299  CPU:    0.018


  **** Optimisation achieved ****


  Final energy =     -40.99535970 eV      
  Final Gnorm  =       0.00000158

  Components of energy : 

--------------------------------------------------------------------------------
  Interatomic potentials     =           6.86814034 eV    
  Monopole - monopole (real) =          -3.84127297 eV    
  Monopole - monopole (recip)=         -44.02222706 eV    
  Monopole - monopole (total)=         -47.86350004 eV    
--------------------------------------------------------------------------------
  Total lattice energy : 
    Primitive unit cell      =         -40.99535970 eV    
    Non-primitive unit cell  =        -163.98143879 eV    
--------------------------------------------------------------------------------
  Total lattice energy (in kJmol-1): 
    Primitive unit cell      =           -3955.4255 kJ/(mole unit cells)
    Non-primitive unit cell  =          -15821.7022 kJ/(mole unit cells)
--------------------------------------------------------------------------------

  Final asymmetric unit coordinates :

--------------------------------------------------------------------------------
   No.  Atomic        x           y           z         Radius
        Label       (Frac)      (Frac)      (Frac)       (Angs) 
--------------------------------------------------------------------------------
     1  Mg    c     0.000000    0.000000    0.000000    0.000000
     2  O     c     0.500000    0.500000    0.500000    0.000000
     3  Mg    s     0.000000    0.000000    0.000000    0.000000
     4  O     s     0.500000    0.500000    0.500000    0.000000
--------------------------------------------------------------------------------

  Final Cartesian lattice vectors (Angstroms) :

        0.000000    2.103023    2.103023
        2.103023    0.000000    2.103023
        2.103023    2.103023    0.000000


  Final cell parameters and derivatives :

--------------------------------------------------------------------------------
       a            2.974123 Angstrom     dE/de1(xx)     0.000002 eV/strain
       b            2.974123 Angstrom     dE/de2(yy)     0.000000 eV/strain
       c            2.974123 Angstrom     dE/de3(zz)     0.000000 eV/strain
       alpha       60.000000 Degrees      dE/de4(yz)     0.000000 eV/strain
       beta        60.000000 Degrees      dE/de5(xz)     0.000000 eV/strain
       gamma       60.000000 Degrees      dE/de6(xy)     0.000000 eV/strain
--------------------------------------------------------------------------------

  Primitive cell volume =            18.602098 Angs**3

  Density of cell =      3.598379 g/cm**3

  Non-primitive lattice parameters :

  a    =     4.206046  b   =     4.206046  c    =     4.206046
  alpha=    90.000000  beta=    90.000000  gamma=    90.000000

  Non-primitive cell volume =            74.408394 Angs**3


  Final internal derivatives :

--------------------------------------------------------------------------------
   No.  Atomic          a             b             c           Radius
        Label          (eV)          (eV)          (eV)        (eV/Angs)
--------------------------------------------------------------------------------
      1 Mg    c       0.000000      0.000000      0.000000      0.000000
      2 O     c       0.000000      0.000000      0.000000      0.000000
      3 Mg    s       0.000000      0.000000      0.000000      0.000000
      4 O     s       0.000000      0.000000      0.000000      0.000000
--------------------------------------------------------------------------------
  Maximum abs         0.000000      0.000000      0.000000      0.000000
--------------------------------------------------------------------------------


  Born effective charge tensors : 

-------------------------------------------------------------------------------
  Atom             x           y             z
-------------------------------------------------------------------------------
    1 Mg    x       1.9228     -0.0000      0.0000
            y      -0.0000      1.9228      0.0000
            z       0.0000      0.0000      1.9228
-------------------------------------------------------------------------------
    2 O     x      -1.9228      0.0000     -0.0000
            y       0.0000     -1.9228     -0.0000
            z      -0.0000     -0.0000     -1.9228
-------------------------------------------------------------------------------




  Elastic Constant Matrix: (Units=GPa)

-------------------------------------------------------------------------------
  Indices      1         2         3         4         5         6    
-------------------------------------------------------------------------------
       1    334.8171  202.5493  202.5493   -0.0000   -0.0000   -0.0000
       2    202.5493  334.8171  202.5493   -0.0000    0.0000   -0.0000
       3    202.5493  202.5493  334.8171   -0.0000   -0.0000   -0.0000
       4     -0.0000   -0.0000   -0.0000  202.5493    0.0000    0.0000
       5     -0.0000    0.0000   -0.0000    0.0000  202.5493   -0.0000
       6     -0.0000   -0.0000   -0.0000    0.0000   -0.0000  202.5493
-------------------------------------------------------------------------------


  Elastic Compliance Matrix: (Units=1/GPa)

-------------------------------------------------------------------------------
  Indices      1         2         3         4         5         6    
-------------------------------------------------------------------------------
       1    0.005491 -0.002070 -0.002070  0.000000  0.000000 -0.000000
       2   -0.002070  0.005491 -0.002070  0.000000 -0.000000  0.000000
       3   -0.002070 -0.002070  0.005491  0.000000  0.000000  0.000000
       4    0.000000  0.000000  0.000000  0.004937 -0.000000 -0.000000
       5    0.000000 -0.000000  0.000000 -0.000000  0.004937  0.000000
       6   -0.000000  0.000000  0.000000 -0.000000  0.000000  0.004937
-------------------------------------------------------------------------------

  Mechanical properties :

-------------------------------------------------------------------------------
  Convention :                    Reuss         Voigt         Hill
-------------------------------------------------------------------------------
  Bulk  Modulus (GPa)     =     246.63860     246.63860     246.63860
  Shear Modulus (GPa)     =     110.98070     147.98316     129.48193
-------------------------------------------------------------------------------
  Velocity S-wave (km/s)  =       5.55354       6.41287       5.99862
  Velocity P-wave (km/s)  =      10.47206      11.10742      10.79442
-------------------------------------------------------------------------------
  Compressibility (1/GPa) =    0.00405452
-------------------------------------------------------------------------------
  Stress axis :                     x             y             z
-------------------------------------------------------------------------------
  Youngs Moduli (GPa)     =     182.12347     182.12347     182.12347
-------------------------------------------------------------------------------
  Poissons Ratio (x)      =                     0.37693       0.37693
  Poissons Ratio (y)      =       0.37693                     0.37693
  Poissons Ratio (z)      =       0.37693       0.37693
-------------------------------------------------------------------------------


  Piezoelectric Strain Matrix: (Units=C/m**2)

-------------------------------------------------------------------------------
  Indices      1         2         3         4         5         6    
-------------------------------------------------------------------------------
       x     0.00000   0.00000   0.00000   0.00000   0.00000   0.00000
       y     0.00000  -0.00000   0.00000   0.00000   0.00000   0.00000
       z     0.00000   0.00000  -0.00000   0.00000   0.00000   0.00000
-------------------------------------------------------------------------------


  Piezoelectric Stress Matrix: (Units=10**-11 C/N)

-------------------------------------------------------------------------------
  Indices      1         2         3         4         5         6    
-------------------------------------------------------------------------------
       x    -0.00000   0.00000   0.00000   0.00000   0.00000   0.00000
       y     0.00000  -0.00000   0.00000   0.00000   0.00000   0.00000
       z     0.00000   0.00000  -0.00000   0.00000   0.00000   0.00000
-------------------------------------------------------------------------------


  Static dielectric constant tensor : 

-------------------------------------------------------------------------------
              x         y         z
-------------------------------------------------------------------------------
       x    14.34809  -0.00000   0.00000
       y    -0.00000  14.34809   0.00000
       z     0.00000   0.00000  14.34809
--------------------------------------------------------------------------------

  High frequency dielectric constant tensor : 

-------------------------------------------------------------------------------
              x         y         z
-------------------------------------------------------------------------------
       x     4.61891  -0.00000   0.00000
       y    -0.00000   4.61891   0.00000
       z     0.00000   0.00000   4.61891
-------------------------------------------------------------------------------

  Static refractive indices : 

-------------------------------------------------------------------------------
    1 =    3.78789      2 =    3.78789      3 =    3.78789
-------------------------------------------------------------------------------

  High frequency refractive indices : 

-------------------------------------------------------------------------------
    1 =    2.14916      2 =    2.14916      3 =    2.14916
-------------------------------------------------------------------------------


  Time to end of optimisation =       0.0241 seconds


  Peak dynamic memory used =       1.82 MB 


  Timing analysis for GULP :

--------------------------------------------------------------------------------
  Task / Subroutine                                          Time (Seconds)
--------------------------------------------------------------------------------
  Calculation of reciprocal space energy and derivatives          0.0003
  Calculation of reciprocal space energy using symmetry           0.0004
  Calculation of real space energy and derivatives                0.0017
  Calculation of real space energy using symmetry                 0.0089
  Symmetry generation of equivalent positions                     0.0028
--------------------------------------------------------------------------------
  Total CPU time                                                  0.0242
--------------------------------------------------------------------------------


  Dump file written as MgO-opt.grs


  Job Finished at 19:52.52 27th July       2022                               

