********************************************************************************
*                       GENERAL UTILITY LATTICE PROGRAM                        *
*                                 Julian Gale                                  *
*                       Curtin Institute for Computation                       *
*                    School of Molecular and Life Sciences                     *
*                    Curtin University, Western Australia                      *
********************************************************************************
* Version = 6.1.0 * Last modified =   8th July 2022                            *
********************************************************************************
*  single       - perform a single point run                                   *
*  md           - perform molecular dynamics run                               *
*  conv         - constant volume calculation                                  *
*  qok          - running with non charge neutral cell is OK                   *
*  preserve_Q   - preserve coordinate line charges over species input          *
*  potential    - calculate electrostatic site potentials                      *
*  efg          - calculate electrostatic electric field gradient              *
*  nomodcoord   - do not mod input coordinates                                 *
*  spatial      - use spatial decomposition algorithm                          *
*  molmec       - molecule option activated, Coulomb subtract 1-2/1-3 terms    *
*  noautobond   - do not compute bonds based on covalent radii                 *
********************************************************************************
* GULP calculation from Materials Studio for Ar_rho=0.0207125_N=512_cubic_60   *
********************************************************************************


  Job Started  at 17:50.57 30th July       2022                               

  Number of CPUs =     1


  Total number of configurations input =      1

********************************************************************************
*  Input for Configuration =   1                                               *
********************************************************************************

  Formula = Ar512                                                       

  Number of irreducible atoms/shells =     512


  Total number atoms/shells =     512

  Dimensionality = 3               :  Bulk   



  Cartesian lattice vectors (Angstroms) :

       29.130000    0.000000    0.000000
        0.000000   29.130000    0.000000
        0.000000    0.000000   29.130000

  Cell parameters (Angstroms/Degrees):

  a =      29.1300    alpha =  90.0000
  b =      29.1300    beta  =  90.0000
  c =      29.1300    gamma =  90.0000

  Initial cell volume =       24718.462497 Angs**3

  Temperature of configuration =   60.0     K 

  Pressure of configuration =         0.000 GPa 

  Fractional coordinates of asymmetric unit :

--------------------------------------------------------------------------------
   No.  Atomic       x           y          z         Charge      Occupancy
        Label      (Frac)      (Frac)     (Frac)        (e)         (Frac)  
--------------------------------------------------------------------------------
      1 Ar1   c    0.000000 *  0.000000 *  0.000000 *   0.00000    1.000000    
      2 Ar1   c    0.000000 *  0.000000 *  0.124991 *   0.00000    1.000000    
      3 Ar1   c    0.000000 *  0.000000 *  0.250017 *   0.00000    1.000000    
      4 Ar1   c    0.000000 *  0.000000 *  0.375009 *   0.00000    1.000000    
      5 Ar1   c    0.000000 *  0.000000 *  0.500000 *   0.00000    1.000000    
      6 Ar1   c    0.000000 *  0.000000 *  0.624991 *   0.00000    1.000000    
      7 Ar1   c    0.000000 *  0.000000 *  0.750017 *   0.00000    1.000000    
      8 Ar1   c    0.000000 *  0.000000 *  0.875009 *   0.00000    1.000000    
      9 Ar1   c    0.000000 *  0.124991 *  0.000000 *   0.00000    1.000000    
     10 Ar1   c    0.000000 *  0.124991 *  0.124991 *   0.00000    1.000000    
     11 Ar1   c    0.000000 *  0.124991 *  0.250017 *   0.00000    1.000000    
     12 Ar1   c    0.000000 *  0.124991 *  0.375009 *   0.00000    1.000000    
     13 Ar1   c    0.000000 *  0.124991 *  0.500000 *   0.00000    1.000000    
     14 Ar1   c    0.000000 *  0.124991 *  0.624991 *   0.00000    1.000000    
     15 Ar1   c    0.000000 *  0.124991 *  0.750017 *   0.00000    1.000000    
     16 Ar1   c    0.000000 *  0.124991 *  0.875009 *   0.00000    1.000000    
     17 Ar1   c    0.000000 *  0.250017 *  0.000000 *   0.00000    1.000000    
     18 Ar1   c    0.000000 *  0.250017 *  0.124991 *   0.00000    1.000000    
     19 Ar1   c    0.000000 *  0.250017 *  0.250017 *   0.00000    1.000000    
     20 Ar1   c    0.000000 *  0.250017 *  0.375009 *   0.00000    1.000000    
     21 Ar1   c    0.000000 *  0.250017 *  0.500000 *   0.00000    1.000000    
     22 Ar1   c    0.000000 *  0.250017 *  0.624991 *   0.00000    1.000000    
     23 Ar1   c    0.000000 *  0.250017 *  0.750017 *   0.00000    1.000000    
     24 Ar1   c    0.000000 *  0.250017 *  0.875009 *   0.00000    1.000000    
     25 Ar1   c    0.000000 *  0.375009 *  0.000000 *   0.00000    1.000000    
     26 Ar1   c    0.000000 *  0.375009 *  0.124991 *   0.00000    1.000000    
     27 Ar1   c    0.000000 *  0.375009 *  0.250017 *   0.00000    1.000000    
     28 Ar1   c    0.000000 *  0.375009 *  0.375009 *   0.00000    1.000000    
     29 Ar1   c    0.000000 *  0.375009 *  0.500000 *   0.00000    1.000000    
     30 Ar1   c    0.000000 *  0.375009 *  0.624991 *   0.00000    1.000000    
     31 Ar1   c    0.000000 *  0.375009 *  0.750017 *   0.00000    1.000000    
     32 Ar1   c    0.000000 *  0.375009 *  0.875009 *   0.00000    1.000000    
     33 Ar1   c    0.000000 *  0.500000 *  0.000000 *   0.00000    1.000000    
     34 Ar1   c    0.000000 *  0.500000 *  0.124991 *   0.00000    1.000000    
     35 Ar1   c    0.000000 *  0.500000 *  0.250017 *   0.00000    1.000000    
     36 Ar1   c    0.000000 *  0.500000 *  0.375009 *   0.00000    1.000000    
     37 Ar1   c    0.000000 *  0.500000 *  0.500000 *   0.00000    1.000000    
     38 Ar1   c    0.000000 *  0.500000 *  0.624991 *   0.00000    1.000000    
     39 Ar1   c    0.000000 *  0.500000 *  0.750017 *   0.00000    1.000000    
     40 Ar1   c    0.000000 *  0.500000 *  0.875009 *   0.00000    1.000000    
     41 Ar1   c    0.000000 *  0.624991 *  0.000000 *   0.00000    1.000000    
     42 Ar1   c    0.000000 *  0.624991 *  0.124991 *   0.00000    1.000000    
     43 Ar1   c    0.000000 *  0.624991 *  0.250017 *   0.00000    1.000000    
     44 Ar1   c    0.000000 *  0.624991 *  0.375009 *   0.00000    1.000000    
     45 Ar1   c    0.000000 *  0.624991 *  0.500000 *   0.00000    1.000000    
     46 Ar1   c    0.000000 *  0.624991 *  0.624991 *   0.00000    1.000000    
     47 Ar1   c    0.000000 *  0.624991 *  0.750017 *   0.00000    1.000000    
     48 Ar1   c    0.000000 *  0.624991 *  0.875009 *   0.00000    1.000000    
     49 Ar1   c    0.000000 *  0.750017 *  0.000000 *   0.00000    1.000000    
     50 Ar1   c    0.000000 *  0.750017 *  0.124991 *   0.00000    1.000000    
     51 Ar1   c    0.000000 *  0.750017 *  0.250017 *   0.00000    1.000000    
     52 Ar1   c    0.000000 *  0.750017 *  0.375009 *   0.00000    1.000000    
     53 Ar1   c    0.000000 *  0.750017 *  0.500000 *   0.00000    1.000000    
     54 Ar1   c    0.000000 *  0.750017 *  0.624991 *   0.00000    1.000000    
     55 Ar1   c    0.000000 *  0.750017 *  0.750017 *   0.00000    1.000000    
     56 Ar1   c    0.000000 *  0.750017 *  0.875009 *   0.00000    1.000000    
     57 Ar1   c    0.000000 *  0.875009 *  0.000000 *   0.00000    1.000000    
     58 Ar1   c    0.000000 *  0.875009 *  0.124991 *   0.00000    1.000000    
     59 Ar1   c    0.000000 *  0.875009 *  0.250017 *   0.00000    1.000000    
     60 Ar1   c    0.000000 *  0.875009 *  0.375009 *   0.00000    1.000000    
     61 Ar1   c    0.000000 *  0.875009 *  0.500000 *   0.00000    1.000000    
     62 Ar1   c    0.000000 *  0.875009 *  0.624991 *   0.00000    1.000000    
     63 Ar1   c    0.000000 *  0.875009 *  0.750017 *   0.00000    1.000000    
     64 Ar1   c    0.000000 *  0.875009 *  0.875009 *   0.00000    1.000000    
     65 Ar1   c    0.124991 *  0.000000 *  0.000000 *   0.00000    1.000000    
     66 Ar1   c    0.124991 *  0.000000 *  0.124991 *   0.00000    1.000000    
     67 Ar1   c    0.124991 *  0.000000 *  0.250017 *   0.00000    1.000000    
     68 Ar1   c    0.124991 *  0.000000 *  0.375009 *   0.00000    1.000000    
     69 Ar1   c    0.124991 *  0.000000 *  0.500000 *   0.00000    1.000000    
     70 Ar1   c    0.124991 *  0.000000 *  0.624991 *   0.00000    1.000000    
     71 Ar1   c    0.124991 *  0.000000 *  0.750017 *   0.00000    1.000000    
     72 Ar1   c    0.124991 *  0.000000 *  0.875009 *   0.00000    1.000000    
     73 Ar1   c    0.124991 *  0.124991 *  0.000000 *   0.00000    1.000000    
     74 Ar1   c    0.124991 *  0.124991 *  0.124991 *   0.00000    1.000000    
     75 Ar1   c    0.124991 *  0.124991 *  0.250017 *   0.00000    1.000000    
     76 Ar1   c    0.124991 *  0.124991 *  0.375009 *   0.00000    1.000000    
     77 Ar1   c    0.124991 *  0.124991 *  0.500000 *   0.00000    1.000000    
     78 Ar1   c    0.124991 *  0.124991 *  0.624991 *   0.00000    1.000000    
     79 Ar1   c    0.124991 *  0.124991 *  0.750017 *   0.00000    1.000000    
     80 Ar1   c    0.124991 *  0.124991 *  0.875009 *   0.00000    1.000000    
     81 Ar1   c    0.124991 *  0.250017 *  0.000000 *   0.00000    1.000000    
     82 Ar1   c    0.124991 *  0.250017 *  0.124991 *   0.00000    1.000000    
     83 Ar1   c    0.124991 *  0.250017 *  0.250017 *   0.00000    1.000000    
     84 Ar1   c    0.124991 *  0.250017 *  0.375009 *   0.00000    1.000000    
     85 Ar1   c    0.124991 *  0.250017 *  0.500000 *   0.00000    1.000000    
     86 Ar1   c    0.124991 *  0.250017 *  0.624991 *   0.00000    1.000000    
     87 Ar1   c    0.124991 *  0.250017 *  0.750017 *   0.00000    1.000000    
     88 Ar1   c    0.124991 *  0.250017 *  0.875009 *   0.00000    1.000000    
     89 Ar1   c    0.124991 *  0.375009 *  0.000000 *   0.00000    1.000000    
     90 Ar1   c    0.124991 *  0.375009 *  0.124991 *   0.00000    1.000000    
     91 Ar1   c    0.124991 *  0.375009 *  0.250017 *   0.00000    1.000000    
     92 Ar1   c    0.124991 *  0.375009 *  0.375009 *   0.00000    1.000000    
     93 Ar1   c    0.124991 *  0.375009 *  0.500000 *   0.00000    1.000000    
     94 Ar1   c    0.124991 *  0.375009 *  0.624991 *   0.00000    1.000000    
     95 Ar1   c    0.124991 *  0.375009 *  0.750017 *   0.00000    1.000000    
     96 Ar1   c    0.124991 *  0.375009 *  0.875009 *   0.00000    1.000000    
     97 Ar1   c    0.124991 *  0.500000 *  0.000000 *   0.00000    1.000000    
     98 Ar1   c    0.124991 *  0.500000 *  0.124991 *   0.00000    1.000000    
     99 Ar1   c    0.124991 *  0.500000 *  0.250017 *   0.00000    1.000000    
    100 Ar1   c    0.124991 *  0.500000 *  0.375009 *   0.00000    1.000000    
    101 Ar1   c    0.124991 *  0.500000 *  0.500000 *   0.00000    1.000000    
    102 Ar1   c    0.124991 *  0.500000 *  0.624991 *   0.00000    1.000000    
    103 Ar1   c    0.124991 *  0.500000 *  0.750017 *   0.00000    1.000000    
    104 Ar1   c    0.124991 *  0.500000 *  0.875009 *   0.00000    1.000000    
    105 Ar1   c    0.124991 *  0.624991 *  0.000000 *   0.00000    1.000000    
    106 Ar1   c    0.124991 *  0.624991 *  0.124991 *   0.00000    1.000000    
    107 Ar1   c    0.124991 *  0.624991 *  0.250017 *   0.00000    1.000000    
    108 Ar1   c    0.124991 *  0.624991 *  0.375009 *   0.00000    1.000000    
    109 Ar1   c    0.124991 *  0.624991 *  0.500000 *   0.00000    1.000000    
    110 Ar1   c    0.124991 *  0.624991 *  0.624991 *   0.00000    1.000000    
    111 Ar1   c    0.124991 *  0.624991 *  0.750017 *   0.00000    1.000000    
    112 Ar1   c    0.124991 *  0.624991 *  0.875009 *   0.00000    1.000000    
    113 Ar1   c    0.124991 *  0.750017 *  0.000000 *   0.00000    1.000000    
    114 Ar1   c    0.124991 *  0.750017 *  0.124991 *   0.00000    1.000000    
    115 Ar1   c    0.124991 *  0.750017 *  0.250017 *   0.00000    1.000000    
    116 Ar1   c    0.124991 *  0.750017 *  0.375009 *   0.00000    1.000000    
    117 Ar1   c    0.124991 *  0.750017 *  0.500000 *   0.00000    1.000000    
    118 Ar1   c    0.124991 *  0.750017 *  0.624991 *   0.00000    1.000000    
    119 Ar1   c    0.124991 *  0.750017 *  0.750017 *   0.00000    1.000000    
    120 Ar1   c    0.124991 *  0.750017 *  0.875009 *   0.00000    1.000000    
    121 Ar1   c    0.124991 *  0.875009 *  0.000000 *   0.00000    1.000000    
    122 Ar1   c    0.124991 *  0.875009 *  0.124991 *   0.00000    1.000000    
    123 Ar1   c    0.124991 *  0.875009 *  0.250017 *   0.00000    1.000000    
    124 Ar1   c    0.124991 *  0.875009 *  0.375009 *   0.00000    1.000000    
    125 Ar1   c    0.124991 *  0.875009 *  0.500000 *   0.00000    1.000000    
    126 Ar1   c    0.124991 *  0.875009 *  0.624991 *   0.00000    1.000000    
    127 Ar1   c    0.124991 *  0.875009 *  0.750017 *   0.00000    1.000000    
    128 Ar1   c    0.124991 *  0.875009 *  0.875009 *   0.00000    1.000000    
    129 Ar1   c    0.250017 *  0.000000 *  0.000000 *   0.00000    1.000000    
    130 Ar1   c    0.250017 *  0.000000 *  0.124991 *   0.00000    1.000000    
    131 Ar1   c    0.250017 *  0.000000 *  0.250017 *   0.00000    1.000000    
    132 Ar1   c    0.250017 *  0.000000 *  0.375009 *   0.00000    1.000000    
    133 Ar1   c    0.250017 *  0.000000 *  0.500000 *   0.00000    1.000000    
    134 Ar1   c    0.250017 *  0.000000 *  0.624991 *   0.00000    1.000000    
    135 Ar1   c    0.250017 *  0.000000 *  0.750017 *   0.00000    1.000000    
    136 Ar1   c    0.250017 *  0.000000 *  0.875009 *   0.00000    1.000000    
    137 Ar1   c    0.250017 *  0.124991 *  0.000000 *   0.00000    1.000000    
    138 Ar1   c    0.250017 *  0.124991 *  0.124991 *   0.00000    1.000000    
    139 Ar1   c    0.250017 *  0.124991 *  0.250017 *   0.00000    1.000000    
    140 Ar1   c    0.250017 *  0.124991 *  0.375009 *   0.00000    1.000000    
    141 Ar1   c    0.250017 *  0.124991 *  0.500000 *   0.00000    1.000000    
    142 Ar1   c    0.250017 *  0.124991 *  0.624991 *   0.00000    1.000000    
    143 Ar1   c    0.250017 *  0.124991 *  0.750017 *   0.00000    1.000000    
    144 Ar1   c    0.250017 *  0.124991 *  0.875009 *   0.00000    1.000000    
    145 Ar1   c    0.250017 *  0.250017 *  0.000000 *   0.00000    1.000000    
    146 Ar1   c    0.250017 *  0.250017 *  0.124991 *   0.00000    1.000000    
    147 Ar1   c    0.250017 *  0.250017 *  0.250017 *   0.00000    1.000000    
    148 Ar1   c    0.250017 *  0.250017 *  0.375009 *   0.00000    1.000000    
    149 Ar1   c    0.250017 *  0.250017 *  0.500000 *   0.00000    1.000000    
    150 Ar1   c    0.250017 *  0.250017 *  0.624991 *   0.00000    1.000000    
    151 Ar1   c    0.250017 *  0.250017 *  0.750017 *   0.00000    1.000000    
    152 Ar1   c    0.250017 *  0.250017 *  0.875009 *   0.00000    1.000000    
    153 Ar1   c    0.250017 *  0.375009 *  0.000000 *   0.00000    1.000000    
    154 Ar1   c    0.250017 *  0.375009 *  0.124991 *   0.00000    1.000000    
    155 Ar1   c    0.250017 *  0.375009 *  0.250017 *   0.00000    1.000000    
    156 Ar1   c    0.250017 *  0.375009 *  0.375009 *   0.00000    1.000000    
    157 Ar1   c    0.250017 *  0.375009 *  0.500000 *   0.00000    1.000000    
    158 Ar1   c    0.250017 *  0.375009 *  0.624991 *   0.00000    1.000000    
    159 Ar1   c    0.250017 *  0.375009 *  0.750017 *   0.00000    1.000000    
    160 Ar1   c    0.250017 *  0.375009 *  0.875009 *   0.00000    1.000000    
    161 Ar1   c    0.250017 *  0.500000 *  0.000000 *   0.00000    1.000000    
    162 Ar1   c    0.250017 *  0.500000 *  0.124991 *   0.00000    1.000000    
    163 Ar1   c    0.250017 *  0.500000 *  0.250017 *   0.00000    1.000000    
    164 Ar1   c    0.250017 *  0.500000 *  0.375009 *   0.00000    1.000000    
    165 Ar1   c    0.250017 *  0.500000 *  0.500000 *   0.00000    1.000000    
    166 Ar1   c    0.250017 *  0.500000 *  0.624991 *   0.00000    1.000000    
    167 Ar1   c    0.250017 *  0.500000 *  0.750017 *   0.00000    1.000000    
    168 Ar1   c    0.250017 *  0.500000 *  0.875009 *   0.00000    1.000000    
    169 Ar1   c    0.250017 *  0.624991 *  0.000000 *   0.00000    1.000000    
    170 Ar1   c    0.250017 *  0.624991 *  0.124991 *   0.00000    1.000000    
    171 Ar1   c    0.250017 *  0.624991 *  0.250017 *   0.00000    1.000000    
    172 Ar1   c    0.250017 *  0.624991 *  0.375009 *   0.00000    1.000000    
    173 Ar1   c    0.250017 *  0.624991 *  0.500000 *   0.00000    1.000000    
    174 Ar1   c    0.250017 *  0.624991 *  0.624991 *   0.00000    1.000000    
    175 Ar1   c    0.250017 *  0.624991 *  0.750017 *   0.00000    1.000000    
    176 Ar1   c    0.250017 *  0.624991 *  0.875009 *   0.00000    1.000000    
    177 Ar1   c    0.250017 *  0.750017 *  0.000000 *   0.00000    1.000000    
    178 Ar1   c    0.250017 *  0.750017 *  0.124991 *   0.00000    1.000000    
    179 Ar1   c    0.250017 *  0.750017 *  0.250017 *   0.00000    1.000000    
    180 Ar1   c    0.250017 *  0.750017 *  0.375009 *   0.00000    1.000000    
    181 Ar1   c    0.250017 *  0.750017 *  0.500000 *   0.00000    1.000000    
    182 Ar1   c    0.250017 *  0.750017 *  0.624991 *   0.00000    1.000000    
    183 Ar1   c    0.250017 *  0.750017 *  0.750017 *   0.00000    1.000000    
    184 Ar1   c    0.250017 *  0.750017 *  0.875009 *   0.00000    1.000000    
    185 Ar1   c    0.250017 *  0.875009 *  0.000000 *   0.00000    1.000000    
    186 Ar1   c    0.250017 *  0.875009 *  0.124991 *   0.00000    1.000000    
    187 Ar1   c    0.250017 *  0.875009 *  0.250017 *   0.00000    1.000000    
    188 Ar1   c    0.250017 *  0.875009 *  0.375009 *   0.00000    1.000000    
    189 Ar1   c    0.250017 *  0.875009 *  0.500000 *   0.00000    1.000000    
    190 Ar1   c    0.250017 *  0.875009 *  0.624991 *   0.00000    1.000000    
    191 Ar1   c    0.250017 *  0.875009 *  0.750017 *   0.00000    1.000000    
    192 Ar1   c    0.250017 *  0.875009 *  0.875009 *   0.00000    1.000000    
    193 Ar1   c    0.375009 *  0.000000 *  0.000000 *   0.00000    1.000000    
    194 Ar1   c    0.375009 *  0.000000 *  0.124991 *   0.00000    1.000000    
    195 Ar1   c    0.375009 *  0.000000 *  0.250017 *   0.00000    1.000000    
    196 Ar1   c    0.375009 *  0.000000 *  0.375009 *   0.00000    1.000000    
    197 Ar1   c    0.375009 *  0.000000 *  0.500000 *   0.00000    1.000000    
    198 Ar1   c    0.375009 *  0.000000 *  0.624991 *   0.00000    1.000000    
    199 Ar1   c    0.375009 *  0.000000 *  0.750017 *   0.00000    1.000000    
    200 Ar1   c    0.375009 *  0.000000 *  0.875009 *   0.00000    1.000000    
    201 Ar1   c    0.375009 *  0.124991 *  0.000000 *   0.00000    1.000000    
    202 Ar1   c    0.375009 *  0.124991 *  0.124991 *   0.00000    1.000000    
    203 Ar1   c    0.375009 *  0.124991 *  0.250017 *   0.00000    1.000000    
    204 Ar1   c    0.375009 *  0.124991 *  0.375009 *   0.00000    1.000000    
    205 Ar1   c    0.375009 *  0.124991 *  0.500000 *   0.00000    1.000000    
    206 Ar1   c    0.375009 *  0.124991 *  0.624991 *   0.00000    1.000000    
    207 Ar1   c    0.375009 *  0.124991 *  0.750017 *   0.00000    1.000000    
    208 Ar1   c    0.375009 *  0.124991 *  0.875009 *   0.00000    1.000000    
    209 Ar1   c    0.375009 *  0.250017 *  0.000000 *   0.00000    1.000000    
    210 Ar1   c    0.375009 *  0.250017 *  0.124991 *   0.00000    1.000000    
    211 Ar1   c    0.375009 *  0.250017 *  0.250017 *   0.00000    1.000000    
    212 Ar1   c    0.375009 *  0.250017 *  0.375009 *   0.00000    1.000000    
    213 Ar1   c    0.375009 *  0.250017 *  0.500000 *   0.00000    1.000000    
    214 Ar1   c    0.375009 *  0.250017 *  0.624991 *   0.00000    1.000000    
    215 Ar1   c    0.375009 *  0.250017 *  0.750017 *   0.00000    1.000000    
    216 Ar1   c    0.375009 *  0.250017 *  0.875009 *   0.00000    1.000000    
    217 Ar1   c    0.375009 *  0.375009 *  0.000000 *   0.00000    1.000000    
    218 Ar1   c    0.375009 *  0.375009 *  0.124991 *   0.00000    1.000000    
    219 Ar1   c    0.375009 *  0.375009 *  0.250017 *   0.00000    1.000000    
    220 Ar1   c    0.375009 *  0.375009 *  0.375009 *   0.00000    1.000000    
    221 Ar1   c    0.375009 *  0.375009 *  0.500000 *   0.00000    1.000000    
    222 Ar1   c    0.375009 *  0.375009 *  0.624991 *   0.00000    1.000000    
    223 Ar1   c    0.375009 *  0.375009 *  0.750017 *   0.00000    1.000000    
    224 Ar1   c    0.375009 *  0.375009 *  0.875009 *   0.00000    1.000000    
    225 Ar1   c    0.375009 *  0.500000 *  0.000000 *   0.00000    1.000000    
    226 Ar1   c    0.375009 *  0.500000 *  0.124991 *   0.00000    1.000000    
    227 Ar1   c    0.375009 *  0.500000 *  0.250017 *   0.00000    1.000000    
    228 Ar1   c    0.375009 *  0.500000 *  0.375009 *   0.00000    1.000000    
    229 Ar1   c    0.375009 *  0.500000 *  0.500000 *   0.00000    1.000000    
    230 Ar1   c    0.375009 *  0.500000 *  0.624991 *   0.00000    1.000000    
    231 Ar1   c    0.375009 *  0.500000 *  0.750017 *   0.00000    1.000000    
    232 Ar1   c    0.375009 *  0.500000 *  0.875009 *   0.00000    1.000000    
    233 Ar1   c    0.375009 *  0.624991 *  0.000000 *   0.00000    1.000000    
    234 Ar1   c    0.375009 *  0.624991 *  0.124991 *   0.00000    1.000000    
    235 Ar1   c    0.375009 *  0.624991 *  0.250017 *   0.00000    1.000000    
    236 Ar1   c    0.375009 *  0.624991 *  0.375009 *   0.00000    1.000000    
    237 Ar1   c    0.375009 *  0.624991 *  0.500000 *   0.00000    1.000000    
    238 Ar1   c    0.375009 *  0.624991 *  0.624991 *   0.00000    1.000000    
    239 Ar1   c    0.375009 *  0.624991 *  0.750017 *   0.00000    1.000000    
    240 Ar1   c    0.375009 *  0.624991 *  0.875009 *   0.00000    1.000000    
    241 Ar1   c    0.375009 *  0.750017 *  0.000000 *   0.00000    1.000000    
    242 Ar1   c    0.375009 *  0.750017 *  0.124991 *   0.00000    1.000000    
    243 Ar1   c    0.375009 *  0.750017 *  0.250017 *   0.00000    1.000000    
    244 Ar1   c    0.375009 *  0.750017 *  0.375009 *   0.00000    1.000000    
    245 Ar1   c    0.375009 *  0.750017 *  0.500000 *   0.00000    1.000000    
    246 Ar1   c    0.375009 *  0.750017 *  0.624991 *   0.00000    1.000000    
    247 Ar1   c    0.375009 *  0.750017 *  0.750017 *   0.00000    1.000000    
    248 Ar1   c    0.375009 *  0.750017 *  0.875009 *   0.00000    1.000000    
    249 Ar1   c    0.375009 *  0.875009 *  0.000000 *   0.00000    1.000000    
    250 Ar1   c    0.375009 *  0.875009 *  0.124991 *   0.00000    1.000000    
    251 Ar1   c    0.375009 *  0.875009 *  0.250017 *   0.00000    1.000000    
    252 Ar1   c    0.375009 *  0.875009 *  0.375009 *   0.00000    1.000000    
    253 Ar1   c    0.375009 *  0.875009 *  0.500000 *   0.00000    1.000000    
    254 Ar1   c    0.375009 *  0.875009 *  0.624991 *   0.00000    1.000000    
    255 Ar1   c    0.375009 *  0.875009 *  0.750017 *   0.00000    1.000000    
    256 Ar1   c    0.375009 *  0.875009 *  0.875009 *   0.00000    1.000000    
    257 Ar1   c    0.500000 *  0.000000 *  0.000000 *   0.00000    1.000000    
    258 Ar1   c    0.500000 *  0.000000 *  0.124991 *   0.00000    1.000000    
    259 Ar1   c    0.500000 *  0.000000 *  0.250017 *   0.00000    1.000000    
    260 Ar1   c    0.500000 *  0.000000 *  0.375009 *   0.00000    1.000000    
    261 Ar1   c    0.500000 *  0.000000 *  0.500000 *   0.00000    1.000000    
    262 Ar1   c    0.500000 *  0.000000 *  0.624991 *   0.00000    1.000000    
    263 Ar1   c    0.500000 *  0.000000 *  0.750017 *   0.00000    1.000000    
    264 Ar1   c    0.500000 *  0.000000 *  0.875009 *   0.00000    1.000000    
    265 Ar1   c    0.500000 *  0.124991 *  0.000000 *   0.00000    1.000000    
    266 Ar1   c    0.500000 *  0.124991 *  0.124991 *   0.00000    1.000000    
    267 Ar1   c    0.500000 *  0.124991 *  0.250017 *   0.00000    1.000000    
    268 Ar1   c    0.500000 *  0.124991 *  0.375009 *   0.00000    1.000000    
    269 Ar1   c    0.500000 *  0.124991 *  0.500000 *   0.00000    1.000000    
    270 Ar1   c    0.500000 *  0.124991 *  0.624991 *   0.00000    1.000000    
    271 Ar1   c    0.500000 *  0.124991 *  0.750017 *   0.00000    1.000000    
    272 Ar1   c    0.500000 *  0.124991 *  0.875009 *   0.00000    1.000000    
    273 Ar1   c    0.500000 *  0.250017 *  0.000000 *   0.00000    1.000000    
    274 Ar1   c    0.500000 *  0.250017 *  0.124991 *   0.00000    1.000000    
    275 Ar1   c    0.500000 *  0.250017 *  0.250017 *   0.00000    1.000000    
    276 Ar1   c    0.500000 *  0.250017 *  0.375009 *   0.00000    1.000000    
    277 Ar1   c    0.500000 *  0.250017 *  0.500000 *   0.00000    1.000000    
    278 Ar1   c    0.500000 *  0.250017 *  0.624991 *   0.00000    1.000000    
    279 Ar1   c    0.500000 *  0.250017 *  0.750017 *   0.00000    1.000000    
    280 Ar1   c    0.500000 *  0.250017 *  0.875009 *   0.00000    1.000000    
    281 Ar1   c    0.500000 *  0.375009 *  0.000000 *   0.00000    1.000000    
    282 Ar1   c    0.500000 *  0.375009 *  0.124991 *   0.00000    1.000000    
    283 Ar1   c    0.500000 *  0.375009 *  0.250017 *   0.00000    1.000000    
    284 Ar1   c    0.500000 *  0.375009 *  0.375009 *   0.00000    1.000000    
    285 Ar1   c    0.500000 *  0.375009 *  0.500000 *   0.00000    1.000000    
    286 Ar1   c    0.500000 *  0.375009 *  0.624991 *   0.00000    1.000000    
    287 Ar1   c    0.500000 *  0.375009 *  0.750017 *   0.00000    1.000000    
    288 Ar1   c    0.500000 *  0.375009 *  0.875009 *   0.00000    1.000000    
    289 Ar1   c    0.500000 *  0.500000 *  0.000000 *   0.00000    1.000000    
    290 Ar1   c    0.500000 *  0.500000 *  0.124991 *   0.00000    1.000000    
    291 Ar1   c    0.500000 *  0.500000 *  0.250017 *   0.00000    1.000000    
    292 Ar1   c    0.500000 *  0.500000 *  0.375009 *   0.00000    1.000000    
    293 Ar1   c    0.500000 *  0.500000 *  0.500000 *   0.00000    1.000000    
    294 Ar1   c    0.500000 *  0.500000 *  0.624991 *   0.00000    1.000000    
    295 Ar1   c    0.500000 *  0.500000 *  0.750017 *   0.00000    1.000000    
    296 Ar1   c    0.500000 *  0.500000 *  0.875009 *   0.00000    1.000000    
    297 Ar1   c    0.500000 *  0.624991 *  0.000000 *   0.00000    1.000000    
    298 Ar1   c    0.500000 *  0.624991 *  0.124991 *   0.00000    1.000000    
    299 Ar1   c    0.500000 *  0.624991 *  0.250017 *   0.00000    1.000000    
    300 Ar1   c    0.500000 *  0.624991 *  0.375009 *   0.00000    1.000000    
    301 Ar1   c    0.500000 *  0.624991 *  0.500000 *   0.00000    1.000000    
    302 Ar1   c    0.500000 *  0.624991 *  0.624991 *   0.00000    1.000000    
    303 Ar1   c    0.500000 *  0.624991 *  0.750017 *   0.00000    1.000000    
    304 Ar1   c    0.500000 *  0.624991 *  0.875009 *   0.00000    1.000000    
    305 Ar1   c    0.500000 *  0.750017 *  0.000000 *   0.00000    1.000000    
    306 Ar1   c    0.500000 *  0.750017 *  0.124991 *   0.00000    1.000000    
    307 Ar1   c    0.500000 *  0.750017 *  0.250017 *   0.00000    1.000000    
    308 Ar1   c    0.500000 *  0.750017 *  0.375009 *   0.00000    1.000000    
    309 Ar1   c    0.500000 *  0.750017 *  0.500000 *   0.00000    1.000000    
    310 Ar1   c    0.500000 *  0.750017 *  0.624991 *   0.00000    1.000000    
    311 Ar1   c    0.500000 *  0.750017 *  0.750017 *   0.00000    1.000000    
    312 Ar1   c    0.500000 *  0.750017 *  0.875009 *   0.00000    1.000000    
    313 Ar1   c    0.500000 *  0.875009 *  0.000000 *   0.00000    1.000000    
    314 Ar1   c    0.500000 *  0.875009 *  0.124991 *   0.00000    1.000000    
    315 Ar1   c    0.500000 *  0.875009 *  0.250017 *   0.00000    1.000000    
    316 Ar1   c    0.500000 *  0.875009 *  0.375009 *   0.00000    1.000000    
    317 Ar1   c    0.500000 *  0.875009 *  0.500000 *   0.00000    1.000000    
    318 Ar1   c    0.500000 *  0.875009 *  0.624991 *   0.00000    1.000000    
    319 Ar1   c    0.500000 *  0.875009 *  0.750017 *   0.00000    1.000000    
    320 Ar1   c    0.500000 *  0.875009 *  0.875009 *   0.00000    1.000000    
    321 Ar1   c    0.624991 *  0.000000 *  0.000000 *   0.00000    1.000000    
    322 Ar1   c    0.624991 *  0.000000 *  0.124991 *   0.00000    1.000000    
    323 Ar1   c    0.624991 *  0.000000 *  0.250017 *   0.00000    1.000000    
    324 Ar1   c    0.624991 *  0.000000 *  0.375009 *   0.00000    1.000000    
    325 Ar1   c    0.624991 *  0.000000 *  0.500000 *   0.00000    1.000000    
    326 Ar1   c    0.624991 *  0.000000 *  0.624991 *   0.00000    1.000000    
    327 Ar1   c    0.624991 *  0.000000 *  0.750017 *   0.00000    1.000000    
    328 Ar1   c    0.624991 *  0.000000 *  0.875009 *   0.00000    1.000000    
    329 Ar1   c    0.624991 *  0.124991 *  0.000000 *   0.00000    1.000000    
    330 Ar1   c    0.624991 *  0.124991 *  0.124991 *   0.00000    1.000000    
    331 Ar1   c    0.624991 *  0.124991 *  0.250017 *   0.00000    1.000000    
    332 Ar1   c    0.624991 *  0.124991 *  0.375009 *   0.00000    1.000000    
    333 Ar1   c    0.624991 *  0.124991 *  0.500000 *   0.00000    1.000000    
    334 Ar1   c    0.624991 *  0.124991 *  0.624991 *   0.00000    1.000000    
    335 Ar1   c    0.624991 *  0.124991 *  0.750017 *   0.00000    1.000000    
    336 Ar1   c    0.624991 *  0.124991 *  0.875009 *   0.00000    1.000000    
    337 Ar1   c    0.624991 *  0.250017 *  0.000000 *   0.00000    1.000000    
    338 Ar1   c    0.624991 *  0.250017 *  0.124991 *   0.00000    1.000000    
    339 Ar1   c    0.624991 *  0.250017 *  0.250017 *   0.00000    1.000000    
    340 Ar1   c    0.624991 *  0.250017 *  0.375009 *   0.00000    1.000000    
    341 Ar1   c    0.624991 *  0.250017 *  0.500000 *   0.00000    1.000000    
    342 Ar1   c    0.624991 *  0.250017 *  0.624991 *   0.00000    1.000000    
    343 Ar1   c    0.624991 *  0.250017 *  0.750017 *   0.00000    1.000000    
    344 Ar1   c    0.624991 *  0.250017 *  0.875009 *   0.00000    1.000000    
    345 Ar1   c    0.624991 *  0.375009 *  0.000000 *   0.00000    1.000000    
    346 Ar1   c    0.624991 *  0.375009 *  0.124991 *   0.00000    1.000000    
    347 Ar1   c    0.624991 *  0.375009 *  0.250017 *   0.00000    1.000000    
    348 Ar1   c    0.624991 *  0.375009 *  0.375009 *   0.00000    1.000000    
    349 Ar1   c    0.624991 *  0.375009 *  0.500000 *   0.00000    1.000000    
    350 Ar1   c    0.624991 *  0.375009 *  0.624991 *   0.00000    1.000000    
    351 Ar1   c    0.624991 *  0.375009 *  0.750017 *   0.00000    1.000000    
    352 Ar1   c    0.624991 *  0.375009 *  0.875009 *   0.00000    1.000000    
    353 Ar1   c    0.624991 *  0.500000 *  0.000000 *   0.00000    1.000000    
    354 Ar1   c    0.624991 *  0.500000 *  0.124991 *   0.00000    1.000000    
    355 Ar1   c    0.624991 *  0.500000 *  0.250017 *   0.00000    1.000000    
    356 Ar1   c    0.624991 *  0.500000 *  0.375009 *   0.00000    1.000000    
    357 Ar1   c    0.624991 *  0.500000 *  0.500000 *   0.00000    1.000000    
    358 Ar1   c    0.624991 *  0.500000 *  0.624991 *   0.00000    1.000000    
    359 Ar1   c    0.624991 *  0.500000 *  0.750017 *   0.00000    1.000000    
    360 Ar1   c    0.624991 *  0.500000 *  0.875009 *   0.00000    1.000000    
    361 Ar1   c    0.624991 *  0.624991 *  0.000000 *   0.00000    1.000000    
    362 Ar1   c    0.624991 *  0.624991 *  0.124991 *   0.00000    1.000000    
    363 Ar1   c    0.624991 *  0.624991 *  0.250017 *   0.00000    1.000000    
    364 Ar1   c    0.624991 *  0.624991 *  0.375009 *   0.00000    1.000000    
    365 Ar1   c    0.624991 *  0.624991 *  0.500000 *   0.00000    1.000000    
    366 Ar1   c    0.624991 *  0.624991 *  0.624991 *   0.00000    1.000000    
    367 Ar1   c    0.624991 *  0.624991 *  0.750017 *   0.00000    1.000000    
    368 Ar1   c    0.624991 *  0.624991 *  0.875009 *   0.00000    1.000000    
    369 Ar1   c    0.624991 *  0.750017 *  0.000000 *   0.00000    1.000000    
    370 Ar1   c    0.624991 *  0.750017 *  0.124991 *   0.00000    1.000000    
    371 Ar1   c    0.624991 *  0.750017 *  0.250017 *   0.00000    1.000000    
    372 Ar1   c    0.624991 *  0.750017 *  0.375009 *   0.00000    1.000000    
    373 Ar1   c    0.624991 *  0.750017 *  0.500000 *   0.00000    1.000000    
    374 Ar1   c    0.624991 *  0.750017 *  0.624991 *   0.00000    1.000000    
    375 Ar1   c    0.624991 *  0.750017 *  0.750017 *   0.00000    1.000000    
    376 Ar1   c    0.624991 *  0.750017 *  0.875009 *   0.00000    1.000000    
    377 Ar1   c    0.624991 *  0.875009 *  0.000000 *   0.00000    1.000000    
    378 Ar1   c    0.624991 *  0.875009 *  0.124991 *   0.00000    1.000000    
    379 Ar1   c    0.624991 *  0.875009 *  0.250017 *   0.00000    1.000000    
    380 Ar1   c    0.624991 *  0.875009 *  0.375009 *   0.00000    1.000000    
    381 Ar1   c    0.624991 *  0.875009 *  0.500000 *   0.00000    1.000000    
    382 Ar1   c    0.624991 *  0.875009 *  0.624991 *   0.00000    1.000000    
    383 Ar1   c    0.624991 *  0.875009 *  0.750017 *   0.00000    1.000000    
    384 Ar1   c    0.624991 *  0.875009 *  0.875009 *   0.00000    1.000000    
    385 Ar1   c    0.750017 *  0.000000 *  0.000000 *   0.00000    1.000000    
    386 Ar1   c    0.750017 *  0.000000 *  0.124991 *   0.00000    1.000000    
    387 Ar1   c    0.750017 *  0.000000 *  0.250017 *   0.00000    1.000000    
    388 Ar1   c    0.750017 *  0.000000 *  0.375009 *   0.00000    1.000000    
    389 Ar1   c    0.750017 *  0.000000 *  0.500000 *   0.00000    1.000000    
    390 Ar1   c    0.750017 *  0.000000 *  0.624991 *   0.00000    1.000000    
    391 Ar1   c    0.750017 *  0.000000 *  0.750017 *   0.00000    1.000000    
    392 Ar1   c    0.750017 *  0.000000 *  0.875009 *   0.00000    1.000000    
    393 Ar1   c    0.750017 *  0.124991 *  0.000000 *   0.00000    1.000000    
    394 Ar1   c    0.750017 *  0.124991 *  0.124991 *   0.00000    1.000000    
    395 Ar1   c    0.750017 *  0.124991 *  0.250017 *   0.00000    1.000000    
    396 Ar1   c    0.750017 *  0.124991 *  0.375009 *   0.00000    1.000000    
    397 Ar1   c    0.750017 *  0.124991 *  0.500000 *   0.00000    1.000000    
    398 Ar1   c    0.750017 *  0.124991 *  0.624991 *   0.00000    1.000000    
    399 Ar1   c    0.750017 *  0.124991 *  0.750017 *   0.00000    1.000000    
    400 Ar1   c    0.750017 *  0.124991 *  0.875009 *   0.00000    1.000000    
    401 Ar1   c    0.750017 *  0.250017 *  0.000000 *   0.00000    1.000000    
    402 Ar1   c    0.750017 *  0.250017 *  0.124991 *   0.00000    1.000000    
    403 Ar1   c    0.750017 *  0.250017 *  0.250017 *   0.00000    1.000000    
    404 Ar1   c    0.750017 *  0.250017 *  0.375009 *   0.00000    1.000000    
    405 Ar1   c    0.750017 *  0.250017 *  0.500000 *   0.00000    1.000000    
    406 Ar1   c    0.750017 *  0.250017 *  0.624991 *   0.00000    1.000000    
    407 Ar1   c    0.750017 *  0.250017 *  0.750017 *   0.00000    1.000000    
    408 Ar1   c    0.750017 *  0.250017 *  0.875009 *   0.00000    1.000000    
    409 Ar1   c    0.750017 *  0.375009 *  0.000000 *   0.00000    1.000000    
    410 Ar1   c    0.750017 *  0.375009 *  0.124991 *   0.00000    1.000000    
    411 Ar1   c    0.750017 *  0.375009 *  0.250017 *   0.00000    1.000000    
    412 Ar1   c    0.750017 *  0.375009 *  0.375009 *   0.00000    1.000000    
    413 Ar1   c    0.750017 *  0.375009 *  0.500000 *   0.00000    1.000000    
    414 Ar1   c    0.750017 *  0.375009 *  0.624991 *   0.00000    1.000000    
    415 Ar1   c    0.750017 *  0.375009 *  0.750017 *   0.00000    1.000000    
    416 Ar1   c    0.750017 *  0.375009 *  0.875009 *   0.00000    1.000000    
    417 Ar1   c    0.750017 *  0.500000 *  0.000000 *   0.00000    1.000000    
    418 Ar1   c    0.750017 *  0.500000 *  0.124991 *   0.00000    1.000000    
    419 Ar1   c    0.750017 *  0.500000 *  0.250017 *   0.00000    1.000000    
    420 Ar1   c    0.750017 *  0.500000 *  0.375009 *   0.00000    1.000000    
    421 Ar1   c    0.750017 *  0.500000 *  0.500000 *   0.00000    1.000000    
    422 Ar1   c    0.750017 *  0.500000 *  0.624991 *   0.00000    1.000000    
    423 Ar1   c    0.750017 *  0.500000 *  0.750017 *   0.00000    1.000000    
    424 Ar1   c    0.750017 *  0.500000 *  0.875009 *   0.00000    1.000000    
    425 Ar1   c    0.750017 *  0.624991 *  0.000000 *   0.00000    1.000000    
    426 Ar1   c    0.750017 *  0.624991 *  0.124991 *   0.00000    1.000000    
    427 Ar1   c    0.750017 *  0.624991 *  0.250017 *   0.00000    1.000000    
    428 Ar1   c    0.750017 *  0.624991 *  0.375009 *   0.00000    1.000000    
    429 Ar1   c    0.750017 *  0.624991 *  0.500000 *   0.00000    1.000000    
    430 Ar1   c    0.750017 *  0.624991 *  0.624991 *   0.00000    1.000000    
    431 Ar1   c    0.750017 *  0.624991 *  0.750017 *   0.00000    1.000000    
    432 Ar1   c    0.750017 *  0.624991 *  0.875009 *   0.00000    1.000000    
    433 Ar1   c    0.750017 *  0.750017 *  0.000000 *   0.00000    1.000000    
    434 Ar1   c    0.750017 *  0.750017 *  0.124991 *   0.00000    1.000000    
    435 Ar1   c    0.750017 *  0.750017 *  0.250017 *   0.00000    1.000000    
    436 Ar1   c    0.750017 *  0.750017 *  0.375009 *   0.00000    1.000000    
    437 Ar1   c    0.750017 *  0.750017 *  0.500000 *   0.00000    1.000000    
    438 Ar1   c    0.750017 *  0.750017 *  0.624991 *   0.00000    1.000000    
    439 Ar1   c    0.750017 *  0.750017 *  0.750017 *   0.00000    1.000000    
    440 Ar1   c    0.750017 *  0.750017 *  0.875009 *   0.00000    1.000000    
    441 Ar1   c    0.750017 *  0.875009 *  0.000000 *   0.00000    1.000000    
    442 Ar1   c    0.750017 *  0.875009 *  0.124991 *   0.00000    1.000000    
    443 Ar1   c    0.750017 *  0.875009 *  0.250017 *   0.00000    1.000000    
    444 Ar1   c    0.750017 *  0.875009 *  0.375009 *   0.00000    1.000000    
    445 Ar1   c    0.750017 *  0.875009 *  0.500000 *   0.00000    1.000000    
    446 Ar1   c    0.750017 *  0.875009 *  0.624991 *   0.00000    1.000000    
    447 Ar1   c    0.750017 *  0.875009 *  0.750017 *   0.00000    1.000000    
    448 Ar1   c    0.750017 *  0.875009 *  0.875009 *   0.00000    1.000000    
    449 Ar1   c    0.875009 *  0.000000 *  0.000000 *   0.00000    1.000000    
    450 Ar1   c    0.875009 *  0.000000 *  0.124991 *   0.00000    1.000000    
    451 Ar1   c    0.875009 *  0.000000 *  0.250017 *   0.00000    1.000000    
    452 Ar1   c    0.875009 *  0.000000 *  0.375009 *   0.00000    1.000000    
    453 Ar1   c    0.875009 *  0.000000 *  0.500000 *   0.00000    1.000000    
    454 Ar1   c    0.875009 *  0.000000 *  0.624991 *   0.00000    1.000000    
    455 Ar1   c    0.875009 *  0.000000 *  0.750017 *   0.00000    1.000000    
    456 Ar1   c    0.875009 *  0.000000 *  0.875009 *   0.00000    1.000000    
    457 Ar1   c    0.875009 *  0.124991 *  0.000000 *   0.00000    1.000000    
    458 Ar1   c    0.875009 *  0.124991 *  0.124991 *   0.00000    1.000000    
    459 Ar1   c    0.875009 *  0.124991 *  0.250017 *   0.00000    1.000000    
    460 Ar1   c    0.875009 *  0.124991 *  0.375009 *   0.00000    1.000000    
    461 Ar1   c    0.875009 *  0.124991 *  0.500000 *   0.00000    1.000000    
    462 Ar1   c    0.875009 *  0.124991 *  0.624991 *   0.00000    1.000000    
    463 Ar1   c    0.875009 *  0.124991 *  0.750017 *   0.00000    1.000000    
    464 Ar1   c    0.875009 *  0.124991 *  0.875009 *   0.00000    1.000000    
    465 Ar1   c    0.875009 *  0.250017 *  0.000000 *   0.00000    1.000000    
    466 Ar1   c    0.875009 *  0.250017 *  0.124991 *   0.00000    1.000000    
    467 Ar1   c    0.875009 *  0.250017 *  0.250017 *   0.00000    1.000000    
    468 Ar1   c    0.875009 *  0.250017 *  0.375009 *   0.00000    1.000000    
    469 Ar1   c    0.875009 *  0.250017 *  0.500000 *   0.00000    1.000000    
    470 Ar1   c    0.875009 *  0.250017 *  0.624991 *   0.00000    1.000000    
    471 Ar1   c    0.875009 *  0.250017 *  0.750017 *   0.00000    1.000000    
    472 Ar1   c    0.875009 *  0.250017 *  0.875009 *   0.00000    1.000000    
    473 Ar1   c    0.875009 *  0.375009 *  0.000000 *   0.00000    1.000000    
    474 Ar1   c    0.875009 *  0.375009 *  0.124991 *   0.00000    1.000000    
    475 Ar1   c    0.875009 *  0.375009 *  0.250017 *   0.00000    1.000000    
    476 Ar1   c    0.875009 *  0.375009 *  0.375009 *   0.00000    1.000000    
    477 Ar1   c    0.875009 *  0.375009 *  0.500000 *   0.00000    1.000000    
    478 Ar1   c    0.875009 *  0.375009 *  0.624991 *   0.00000    1.000000    
    479 Ar1   c    0.875009 *  0.375009 *  0.750017 *   0.00000    1.000000    
    480 Ar1   c    0.875009 *  0.375009 *  0.875009 *   0.00000    1.000000    
    481 Ar1   c    0.875009 *  0.500000 *  0.000000 *   0.00000    1.000000    
    482 Ar1   c    0.875009 *  0.500000 *  0.124991 *   0.00000    1.000000    
    483 Ar1   c    0.875009 *  0.500000 *  0.250017 *   0.00000    1.000000    
    484 Ar1   c    0.875009 *  0.500000 *  0.375009 *   0.00000    1.000000    
    485 Ar1   c    0.875009 *  0.500000 *  0.500000 *   0.00000    1.000000    
    486 Ar1   c    0.875009 *  0.500000 *  0.624991 *   0.00000    1.000000    
    487 Ar1   c    0.875009 *  0.500000 *  0.750017 *   0.00000    1.000000    
    488 Ar1   c    0.875009 *  0.500000 *  0.875009 *   0.00000    1.000000    
    489 Ar1   c    0.875009 *  0.624991 *  0.000000 *   0.00000    1.000000    
    490 Ar1   c    0.875009 *  0.624991 *  0.124991 *   0.00000    1.000000    
    491 Ar1   c    0.875009 *  0.624991 *  0.250017 *   0.00000    1.000000    
    492 Ar1   c    0.875009 *  0.624991 *  0.375009 *   0.00000    1.000000    
    493 Ar1   c    0.875009 *  0.624991 *  0.500000 *   0.00000    1.000000    
    494 Ar1   c    0.875009 *  0.624991 *  0.624991 *   0.00000    1.000000    
    495 Ar1   c    0.875009 *  0.624991 *  0.750017 *   0.00000    1.000000    
    496 Ar1   c    0.875009 *  0.624991 *  0.875009 *   0.00000    1.000000    
    497 Ar1   c    0.875009 *  0.750017 *  0.000000 *   0.00000    1.000000    
    498 Ar1   c    0.875009 *  0.750017 *  0.124991 *   0.00000    1.000000    
    499 Ar1   c    0.875009 *  0.750017 *  0.250017 *   0.00000    1.000000    
    500 Ar1   c    0.875009 *  0.750017 *  0.375009 *   0.00000    1.000000    
    501 Ar1   c    0.875009 *  0.750017 *  0.500000 *   0.00000    1.000000    
    502 Ar1   c    0.875009 *  0.750017 *  0.624991 *   0.00000    1.000000    
    503 Ar1   c    0.875009 *  0.750017 *  0.750017 *   0.00000    1.000000    
    504 Ar1   c    0.875009 *  0.750017 *  0.875009 *   0.00000    1.000000    
    505 Ar1   c    0.875009 *  0.875009 *  0.000000 *   0.00000    1.000000    
    506 Ar1   c    0.875009 *  0.875009 *  0.124991 *   0.00000    1.000000    
    507 Ar1   c    0.875009 *  0.875009 *  0.250017 *   0.00000    1.000000    
    508 Ar1   c    0.875009 *  0.875009 *  0.375009 *   0.00000    1.000000    
    509 Ar1   c    0.875009 *  0.875009 *  0.500000 *   0.00000    1.000000    
    510 Ar1   c    0.875009 *  0.875009 *  0.624991 *   0.00000    1.000000    
    511 Ar1   c    0.875009 *  0.875009 *  0.750017 *   0.00000    1.000000    
    512 Ar1   c    0.875009 *  0.875009 *  0.875009 *   0.00000    1.000000    
--------------------------------------------------------------------------------



  Molecule list generated from bond lengths :

  Total number of molecules =     0


********************************************************************************
*  General input information                                                   *
********************************************************************************

  Species output for all configurations : 

--------------------------------------------------------------------------------
  Species    Type    Atomic    Atomic    Charge       Radii (Angs)     Library
                     Number     Mass       (e)     Cova   Ionic  VDW   Symbol
--------------------------------------------------------------------------------
    Ar1      Core       18      39.95   0.000000   0.000  0.000  0.000 Ar4+4    
--------------------------------------------------------------------------------


  Universal Force Field (UFF) species output: 

--------------------------------------------------------------------------------
  Species    Type    Radius    Theta    Distance    Energy     Zeta     Zeff    
                     (Ang)   (degrees)   (Ang)       (eV)               (e)     
--------------------------------------------------------------------------------
    Ar1      Core    1.0320    90.000     3.8680    0.0080   15.7630   0.2994
--------------------------------------------------------------------------------


  Lattice summation method               =    Ewald          (3-D)
                                         =    Parry          (2-D)
                                         =    Saunders et al (1-D)
  Accuracy factor for lattice sums       =   12.000


  Analytic derivatives to be used

  Time limit = Infinity

  Maximum range for interatomic potentials =    100000.000000 Angstroms

  General interatomic potentials :

--------------------------------------------------------------------------------
Atom  Types   Potential      Parameter       Value         Units   Cutoffs(Ang)
  1     2                                                            Min /  Max 
--------------------------------------------------------------------------------
Ar1  c Ar1  c Lennard       Lennard-Jones A  89979.376    eV*Ang^m  3Bond 10.000
                            Lennard-Jones B  53.734620    eV*Ang^n  
                            Exponent m        12          None
                            Exponent n         6          None
--------------------------------------------------------------------------------

  Intramolecular potentials :

--------------------------------------------------------------------------------
Atom  Types   Potential      Parameter       Value         Units   Cutoffs(Ang)
  1     2                                                            Min /  Max 
--------------------------------------------------------------------------------
Ar1  c Ar1  c Harmonic      Harmonic k2     0.29359911    eV*Ang^-2 0.000 1 Bond
                            Harmonic r0      2.0640000    Ang       
                            Harmonic k3      0.0000000    eV*Ang^-3 
                            Harmonic k4      0.0000000    eV*Ang^-4 
                                                                    single   cyc
--------------------------------------------------------------------------------

  Intramolecular Three-body potentials :

--------------------------------------------------------------------------------
  Atoms       Potential      Parameter       Value         Units   Cutoffs(Ang)
  1 / 2 / 3                                                          Min /  Max 
--------------------------------------------------------------------------------
Ar1   core    Linear 3-body Three-body cnst 0.97315276E-02eV        0.000 1 Bond
Ar1   core                  Three-body sign -1.0000000    None      0.000 1 Bond
Ar1   core                                                          0.000
--------------------------------------------------------------------------------

********************************************************************************
*  Output for configuration   1                                                *
********************************************************************************


  Components of energy : 

--------------------------------------------------------------------------------
  Interatomic potentials     =         -22.05799517 eV    
  Three-body potentials      =           0.00000000 eV    
  Monopole - monopole (real) =           0.00000000 eV    
  Monopole - monopole (recip)=           0.00000000 eV    
  Monopole - monopole (total)=           0.00000000 eV    
--------------------------------------------------------------------------------
  Total lattice energy       =         -22.05799517 eV    
--------------------------------------------------------------------------------
  Total lattice energy       =           -2128.2593 kJ/(mole unit cells)
--------------------------------------------------------------------------------

  MSI Archive (version 3) open for Movie as Ar_rho_0.0207125_N=512_cubic_298_TS=10_3D.arc



  Electrostatic potential at atomic positions :

-------------------------------------------------------------------------------
 Site  Atomic      Potential                Derivatives (V/Angs)
 No.   Label          (V)                 x           y           z
-------------------------------------------------------------------------------
     1 Ar1   c      0.000000           0.000000    0.000000    0.000000
     2 Ar1   c      0.000000           0.000000    0.000000    0.000000
     3 Ar1   c      0.000000           0.000000    0.000000    0.000000
     4 Ar1   c      0.000000           0.000000    0.000000    0.000000
     5 Ar1   c      0.000000           0.000000    0.000000    0.000000
     6 Ar1   c      0.000000           0.000000    0.000000    0.000000
     7 Ar1   c      0.000000           0.000000    0.000000    0.000000
     8 Ar1   c      0.000000           0.000000    0.000000    0.000000
     9 Ar1   c      0.000000           0.000000    0.000000    0.000000
    10 Ar1   c      0.000000           0.000000    0.000000    0.000000
    11 Ar1   c      0.000000           0.000000    0.000000    0.000000
    12 Ar1   c      0.000000           0.000000    0.000000    0.000000
    13 Ar1   c      0.000000           0.000000    0.000000    0.000000
    14 Ar1   c      0.000000           0.000000    0.000000    0.000000
    15 Ar1   c      0.000000           0.000000    0.000000    0.000000
    16 Ar1   c      0.000000           0.000000    0.000000    0.000000
    17 Ar1   c      0.000000           0.000000    0.000000    0.000000
    18 Ar1   c      0.000000           0.000000    0.000000    0.000000
    19 Ar1   c      0.000000           0.000000    0.000000    0.000000
    20 Ar1   c      0.000000           0.000000    0.000000    0.000000
    21 Ar1   c      0.000000           0.000000    0.000000    0.000000
    22 Ar1   c      0.000000           0.000000    0.000000    0.000000
    23 Ar1   c      0.000000           0.000000    0.000000    0.000000
    24 Ar1   c      0.000000           0.000000    0.000000    0.000000
    25 Ar1   c      0.000000           0.000000    0.000000    0.000000
    26 Ar1   c      0.000000           0.000000    0.000000    0.000000
    27 Ar1   c      0.000000           0.000000    0.000000    0.000000
    28 Ar1   c      0.000000           0.000000    0.000000    0.000000
    29 Ar1   c      0.000000           0.000000    0.000000    0.000000
    30 Ar1   c      0.000000           0.000000    0.000000    0.000000
    31 Ar1   c      0.000000           0.000000    0.000000    0.000000
    32 Ar1   c      0.000000           0.000000    0.000000    0.000000
    33 Ar1   c      0.000000           0.000000    0.000000    0.000000
    34 Ar1   c      0.000000           0.000000    0.000000    0.000000
    35 Ar1   c      0.000000           0.000000    0.000000    0.000000
    36 Ar1   c      0.000000           0.000000    0.000000    0.000000
    37 Ar1   c      0.000000           0.000000    0.000000    0.000000
    38 Ar1   c      0.000000           0.000000    0.000000    0.000000
    39 Ar1   c      0.000000           0.000000    0.000000    0.000000
    40 Ar1   c      0.000000           0.000000    0.000000    0.000000
    41 Ar1   c      0.000000           0.000000    0.000000    0.000000
    42 Ar1   c      0.000000           0.000000    0.000000    0.000000
    43 Ar1   c      0.000000           0.000000    0.000000    0.000000
    44 Ar1   c      0.000000           0.000000    0.000000    0.000000
    45 Ar1   c      0.000000           0.000000    0.000000    0.000000
    46 Ar1   c      0.000000           0.000000    0.000000    0.000000
    47 Ar1   c      0.000000           0.000000    0.000000    0.000000
    48 Ar1   c      0.000000           0.000000    0.000000    0.000000
    49 Ar1   c      0.000000           0.000000    0.000000    0.000000
    50 Ar1   c      0.000000           0.000000    0.000000    0.000000
    51 Ar1   c      0.000000           0.000000    0.000000    0.000000
    52 Ar1   c      0.000000           0.000000    0.000000    0.000000
    53 Ar1   c      0.000000           0.000000    0.000000    0.000000
    54 Ar1   c      0.000000           0.000000    0.000000    0.000000
    55 Ar1   c      0.000000           0.000000    0.000000    0.000000
    56 Ar1   c      0.000000           0.000000    0.000000    0.000000
    57 Ar1   c      0.000000           0.000000    0.000000    0.000000
    58 Ar1   c      0.000000           0.000000    0.000000    0.000000
    59 Ar1   c      0.000000           0.000000    0.000000    0.000000
    60 Ar1   c      0.000000           0.000000    0.000000    0.000000
    61 Ar1   c      0.000000           0.000000    0.000000    0.000000
    62 Ar1   c      0.000000           0.000000    0.000000    0.000000
    63 Ar1   c      0.000000           0.000000    0.000000    0.000000
    64 Ar1   c      0.000000           0.000000    0.000000    0.000000
    65 Ar1   c      0.000000           0.000000    0.000000    0.000000
    66 Ar1   c      0.000000           0.000000    0.000000    0.000000
    67 Ar1   c      0.000000           0.000000    0.000000    0.000000
    68 Ar1   c      0.000000           0.000000    0.000000    0.000000
    69 Ar1   c      0.000000           0.000000    0.000000    0.000000
    70 Ar1   c      0.000000           0.000000    0.000000    0.000000
    71 Ar1   c      0.000000           0.000000    0.000000    0.000000
    72 Ar1   c      0.000000           0.000000    0.000000    0.000000
    73 Ar1   c      0.000000           0.000000    0.000000    0.000000
    74 Ar1   c      0.000000           0.000000    0.000000    0.000000
    75 Ar1   c      0.000000           0.000000    0.000000    0.000000
    76 Ar1   c      0.000000           0.000000    0.000000    0.000000
    77 Ar1   c      0.000000           0.000000    0.000000    0.000000
    78 Ar1   c      0.000000           0.000000    0.000000    0.000000
    79 Ar1   c      0.000000           0.000000    0.000000    0.000000
    80 Ar1   c      0.000000           0.000000    0.000000    0.000000
    81 Ar1   c      0.000000           0.000000    0.000000    0.000000
    82 Ar1   c      0.000000           0.000000    0.000000    0.000000
    83 Ar1   c      0.000000           0.000000    0.000000    0.000000
    84 Ar1   c      0.000000           0.000000    0.000000    0.000000
    85 Ar1   c      0.000000           0.000000    0.000000    0.000000
    86 Ar1   c      0.000000           0.000000    0.000000    0.000000
    87 Ar1   c      0.000000           0.000000    0.000000    0.000000
    88 Ar1   c      0.000000           0.000000    0.000000    0.000000
    89 Ar1   c      0.000000           0.000000    0.000000    0.000000
    90 Ar1   c      0.000000           0.000000    0.000000    0.000000
    91 Ar1   c      0.000000           0.000000    0.000000    0.000000
    92 Ar1   c      0.000000           0.000000    0.000000    0.000000
    93 Ar1   c      0.000000           0.000000    0.000000    0.000000
    94 Ar1   c      0.000000           0.000000    0.000000    0.000000
    95 Ar1   c      0.000000           0.000000    0.000000    0.000000
    96 Ar1   c      0.000000           0.000000    0.000000    0.000000
    97 Ar1   c      0.000000           0.000000    0.000000    0.000000
    98 Ar1   c      0.000000           0.000000    0.000000    0.000000
    99 Ar1   c      0.000000           0.000000    0.000000    0.000000
   100 Ar1   c      0.000000           0.000000    0.000000    0.000000
   101 Ar1   c      0.000000           0.000000    0.000000    0.000000
   102 Ar1   c      0.000000           0.000000    0.000000    0.000000
   103 Ar1   c      0.000000           0.000000    0.000000    0.000000
   104 Ar1   c      0.000000           0.000000    0.000000    0.000000
   105 Ar1   c      0.000000           0.000000    0.000000    0.000000
   106 Ar1   c      0.000000           0.000000    0.000000    0.000000
   107 Ar1   c      0.000000           0.000000    0.000000    0.000000
   108 Ar1   c      0.000000           0.000000    0.000000    0.000000
   109 Ar1   c      0.000000           0.000000    0.000000    0.000000
   110 Ar1   c      0.000000           0.000000    0.000000    0.000000
   111 Ar1   c      0.000000           0.000000    0.000000    0.000000
   112 Ar1   c      0.000000           0.000000    0.000000    0.000000
   113 Ar1   c      0.000000           0.000000    0.000000    0.000000
   114 Ar1   c      0.000000           0.000000    0.000000    0.000000
   115 Ar1   c      0.000000           0.000000    0.000000    0.000000
   116 Ar1   c      0.000000           0.000000    0.000000    0.000000
   117 Ar1   c      0.000000           0.000000    0.000000    0.000000
   118 Ar1   c      0.000000           0.000000    0.000000    0.000000
   119 Ar1   c      0.000000           0.000000    0.000000    0.000000
   120 Ar1   c      0.000000           0.000000    0.000000    0.000000
   121 Ar1   c      0.000000           0.000000    0.000000    0.000000
   122 Ar1   c      0.000000           0.000000    0.000000    0.000000
   123 Ar1   c      0.000000           0.000000    0.000000    0.000000
   124 Ar1   c      0.000000           0.000000    0.000000    0.000000
   125 Ar1   c      0.000000           0.000000    0.000000    0.000000
   126 Ar1   c      0.000000           0.000000    0.000000    0.000000
   127 Ar1   c      0.000000           0.000000    0.000000    0.000000
   128 Ar1   c      0.000000           0.000000    0.000000    0.000000
   129 Ar1   c      0.000000           0.000000    0.000000    0.000000
   130 Ar1   c      0.000000           0.000000    0.000000    0.000000
   131 Ar1   c      0.000000           0.000000    0.000000    0.000000
   132 Ar1   c      0.000000           0.000000    0.000000    0.000000
   133 Ar1   c      0.000000           0.000000    0.000000    0.000000
   134 Ar1   c      0.000000           0.000000    0.000000    0.000000
   135 Ar1   c      0.000000           0.000000    0.000000    0.000000
   136 Ar1   c      0.000000           0.000000    0.000000    0.000000
   137 Ar1   c      0.000000           0.000000    0.000000    0.000000
   138 Ar1   c      0.000000           0.000000    0.000000    0.000000
   139 Ar1   c      0.000000           0.000000    0.000000    0.000000
   140 Ar1   c      0.000000           0.000000    0.000000    0.000000
   141 Ar1   c      0.000000           0.000000    0.000000    0.000000
   142 Ar1   c      0.000000           0.000000    0.000000    0.000000
   143 Ar1   c      0.000000           0.000000    0.000000    0.000000
   144 Ar1   c      0.000000           0.000000    0.000000    0.000000
   145 Ar1   c      0.000000           0.000000    0.000000    0.000000
   146 Ar1   c      0.000000           0.000000    0.000000    0.000000
   147 Ar1   c      0.000000           0.000000    0.000000    0.000000
   148 Ar1   c      0.000000           0.000000    0.000000    0.000000
   149 Ar1   c      0.000000           0.000000    0.000000    0.000000
   150 Ar1   c      0.000000           0.000000    0.000000    0.000000
   151 Ar1   c      0.000000           0.000000    0.000000    0.000000
   152 Ar1   c      0.000000           0.000000    0.000000    0.000000
   153 Ar1   c      0.000000           0.000000    0.000000    0.000000
   154 Ar1   c      0.000000           0.000000    0.000000    0.000000
   155 Ar1   c      0.000000           0.000000    0.000000    0.000000
   156 Ar1   c      0.000000           0.000000    0.000000    0.000000
   157 Ar1   c      0.000000           0.000000    0.000000    0.000000
   158 Ar1   c      0.000000           0.000000    0.000000    0.000000
   159 Ar1   c      0.000000           0.000000    0.000000    0.000000
   160 Ar1   c      0.000000           0.000000    0.000000    0.000000
   161 Ar1   c      0.000000           0.000000    0.000000    0.000000
   162 Ar1   c      0.000000           0.000000    0.000000    0.000000
   163 Ar1   c      0.000000           0.000000    0.000000    0.000000
   164 Ar1   c      0.000000           0.000000    0.000000    0.000000
   165 Ar1   c      0.000000           0.000000    0.000000    0.000000
   166 Ar1   c      0.000000           0.000000    0.000000    0.000000
   167 Ar1   c      0.000000           0.000000    0.000000    0.000000
   168 Ar1   c      0.000000           0.000000    0.000000    0.000000
   169 Ar1   c      0.000000           0.000000    0.000000    0.000000
   170 Ar1   c      0.000000           0.000000    0.000000    0.000000
   171 Ar1   c      0.000000           0.000000    0.000000    0.000000
   172 Ar1   c      0.000000           0.000000    0.000000    0.000000
   173 Ar1   c      0.000000           0.000000    0.000000    0.000000
   174 Ar1   c      0.000000           0.000000    0.000000    0.000000
   175 Ar1   c      0.000000           0.000000    0.000000    0.000000
   176 Ar1   c      0.000000           0.000000    0.000000    0.000000
   177 Ar1   c      0.000000           0.000000    0.000000    0.000000
   178 Ar1   c      0.000000           0.000000    0.000000    0.000000
   179 Ar1   c      0.000000           0.000000    0.000000    0.000000
   180 Ar1   c      0.000000           0.000000    0.000000    0.000000
   181 Ar1   c      0.000000           0.000000    0.000000    0.000000
   182 Ar1   c      0.000000           0.000000    0.000000    0.000000
   183 Ar1   c      0.000000           0.000000    0.000000    0.000000
   184 Ar1   c      0.000000           0.000000    0.000000    0.000000
   185 Ar1   c      0.000000           0.000000    0.000000    0.000000
   186 Ar1   c      0.000000           0.000000    0.000000    0.000000
   187 Ar1   c      0.000000           0.000000    0.000000    0.000000
   188 Ar1   c      0.000000           0.000000    0.000000    0.000000
   189 Ar1   c      0.000000           0.000000    0.000000    0.000000
   190 Ar1   c      0.000000           0.000000    0.000000    0.000000
   191 Ar1   c      0.000000           0.000000    0.000000    0.000000
   192 Ar1   c      0.000000           0.000000    0.000000    0.000000
   193 Ar1   c      0.000000           0.000000    0.000000    0.000000
   194 Ar1   c      0.000000           0.000000    0.000000    0.000000
   195 Ar1   c      0.000000           0.000000    0.000000    0.000000
   196 Ar1   c      0.000000           0.000000    0.000000    0.000000
   197 Ar1   c      0.000000           0.000000    0.000000    0.000000
   198 Ar1   c      0.000000           0.000000    0.000000    0.000000
   199 Ar1   c      0.000000           0.000000    0.000000    0.000000
   200 Ar1   c      0.000000           0.000000    0.000000    0.000000
   201 Ar1   c      0.000000           0.000000    0.000000    0.000000
   202 Ar1   c      0.000000           0.000000    0.000000    0.000000
   203 Ar1   c      0.000000           0.000000    0.000000    0.000000
   204 Ar1   c      0.000000           0.000000    0.000000    0.000000
   205 Ar1   c      0.000000           0.000000    0.000000    0.000000
   206 Ar1   c      0.000000           0.000000    0.000000    0.000000
   207 Ar1   c      0.000000           0.000000    0.000000    0.000000
   208 Ar1   c      0.000000           0.000000    0.000000    0.000000
   209 Ar1   c      0.000000           0.000000    0.000000    0.000000
   210 Ar1   c      0.000000           0.000000    0.000000    0.000000
   211 Ar1   c      0.000000           0.000000    0.000000    0.000000
   212 Ar1   c      0.000000           0.000000    0.000000    0.000000
   213 Ar1   c      0.000000           0.000000    0.000000    0.000000
   214 Ar1   c      0.000000           0.000000    0.000000    0.000000
   215 Ar1   c      0.000000           0.000000    0.000000    0.000000
   216 Ar1   c      0.000000           0.000000    0.000000    0.000000
   217 Ar1   c      0.000000           0.000000    0.000000    0.000000
   218 Ar1   c      0.000000           0.000000    0.000000    0.000000
   219 Ar1   c      0.000000           0.000000    0.000000    0.000000
   220 Ar1   c      0.000000           0.000000    0.000000    0.000000
   221 Ar1   c      0.000000           0.000000    0.000000    0.000000
   222 Ar1   c      0.000000           0.000000    0.000000    0.000000
   223 Ar1   c      0.000000           0.000000    0.000000    0.000000
   224 Ar1   c      0.000000           0.000000    0.000000    0.000000
   225 Ar1   c      0.000000           0.000000    0.000000    0.000000
   226 Ar1   c      0.000000           0.000000    0.000000    0.000000
   227 Ar1   c      0.000000           0.000000    0.000000    0.000000
   228 Ar1   c      0.000000           0.000000    0.000000    0.000000
   229 Ar1   c      0.000000           0.000000    0.000000    0.000000
   230 Ar1   c      0.000000           0.000000    0.000000    0.000000
   231 Ar1   c      0.000000           0.000000    0.000000    0.000000
   232 Ar1   c      0.000000           0.000000    0.000000    0.000000
   233 Ar1   c      0.000000           0.000000    0.000000    0.000000
   234 Ar1   c      0.000000           0.000000    0.000000    0.000000
   235 Ar1   c      0.000000           0.000000    0.000000    0.000000
   236 Ar1   c      0.000000           0.000000    0.000000    0.000000
   237 Ar1   c      0.000000           0.000000    0.000000    0.000000
   238 Ar1   c      0.000000           0.000000    0.000000    0.000000
   239 Ar1   c      0.000000           0.000000    0.000000    0.000000
   240 Ar1   c      0.000000           0.000000    0.000000    0.000000
   241 Ar1   c      0.000000           0.000000    0.000000    0.000000
   242 Ar1   c      0.000000           0.000000    0.000000    0.000000
   243 Ar1   c      0.000000           0.000000    0.000000    0.000000
   244 Ar1   c      0.000000           0.000000    0.000000    0.000000
   245 Ar1   c      0.000000           0.000000    0.000000    0.000000
   246 Ar1   c      0.000000           0.000000    0.000000    0.000000
   247 Ar1   c      0.000000           0.000000    0.000000    0.000000
   248 Ar1   c      0.000000           0.000000    0.000000    0.000000
   249 Ar1   c      0.000000           0.000000    0.000000    0.000000
   250 Ar1   c      0.000000           0.000000    0.000000    0.000000
   251 Ar1   c      0.000000           0.000000    0.000000    0.000000
   252 Ar1   c      0.000000           0.000000    0.000000    0.000000
   253 Ar1   c      0.000000           0.000000    0.000000    0.000000
   254 Ar1   c      0.000000           0.000000    0.000000    0.000000
   255 Ar1   c      0.000000           0.000000    0.000000    0.000000
   256 Ar1   c      0.000000           0.000000    0.000000    0.000000
   257 Ar1   c      0.000000           0.000000    0.000000    0.000000
   258 Ar1   c      0.000000           0.000000    0.000000    0.000000
   259 Ar1   c      0.000000           0.000000    0.000000    0.000000
   260 Ar1   c      0.000000           0.000000    0.000000    0.000000
   261 Ar1   c      0.000000           0.000000    0.000000    0.000000
   262 Ar1   c      0.000000           0.000000    0.000000    0.000000
   263 Ar1   c      0.000000           0.000000    0.000000    0.000000
   264 Ar1   c      0.000000           0.000000    0.000000    0.000000
   265 Ar1   c      0.000000           0.000000    0.000000    0.000000
   266 Ar1   c      0.000000           0.000000    0.000000    0.000000
   267 Ar1   c      0.000000           0.000000    0.000000    0.000000
   268 Ar1   c      0.000000           0.000000    0.000000    0.000000
   269 Ar1   c      0.000000           0.000000    0.000000    0.000000
   270 Ar1   c      0.000000           0.000000    0.000000    0.000000
   271 Ar1   c      0.000000           0.000000    0.000000    0.000000
   272 Ar1   c      0.000000           0.000000    0.000000    0.000000
   273 Ar1   c      0.000000           0.000000    0.000000    0.000000
   274 Ar1   c      0.000000           0.000000    0.000000    0.000000
   275 Ar1   c      0.000000           0.000000    0.000000    0.000000
   276 Ar1   c      0.000000           0.000000    0.000000    0.000000
   277 Ar1   c      0.000000           0.000000    0.000000    0.000000
   278 Ar1   c      0.000000           0.000000    0.000000    0.000000
   279 Ar1   c      0.000000           0.000000    0.000000    0.000000
   280 Ar1   c      0.000000           0.000000    0.000000    0.000000
   281 Ar1   c      0.000000           0.000000    0.000000    0.000000
   282 Ar1   c      0.000000           0.000000    0.000000    0.000000
   283 Ar1   c      0.000000           0.000000    0.000000    0.000000
   284 Ar1   c      0.000000           0.000000    0.000000    0.000000
   285 Ar1   c      0.000000           0.000000    0.000000    0.000000
   286 Ar1   c      0.000000           0.000000    0.000000    0.000000
   287 Ar1   c      0.000000           0.000000    0.000000    0.000000
   288 Ar1   c      0.000000           0.000000    0.000000    0.000000
   289 Ar1   c      0.000000           0.000000    0.000000    0.000000
   290 Ar1   c      0.000000           0.000000    0.000000    0.000000
   291 Ar1   c      0.000000           0.000000    0.000000    0.000000
   292 Ar1   c      0.000000           0.000000    0.000000    0.000000
   293 Ar1   c      0.000000           0.000000    0.000000    0.000000
   294 Ar1   c      0.000000           0.000000    0.000000    0.000000
   295 Ar1   c      0.000000           0.000000    0.000000    0.000000
   296 Ar1   c      0.000000           0.000000    0.000000    0.000000
   297 Ar1   c      0.000000           0.000000    0.000000    0.000000
   298 Ar1   c      0.000000           0.000000    0.000000    0.000000
   299 Ar1   c      0.000000           0.000000    0.000000    0.000000
   300 Ar1   c      0.000000           0.000000    0.000000    0.000000
   301 Ar1   c      0.000000           0.000000    0.000000    0.000000
   302 Ar1   c      0.000000           0.000000    0.000000    0.000000
   303 Ar1   c      0.000000           0.000000    0.000000    0.000000
   304 Ar1   c      0.000000           0.000000    0.000000    0.000000
   305 Ar1   c      0.000000           0.000000    0.000000    0.000000
   306 Ar1   c      0.000000           0.000000    0.000000    0.000000
   307 Ar1   c      0.000000           0.000000    0.000000    0.000000
   308 Ar1   c      0.000000           0.000000    0.000000    0.000000
   309 Ar1   c      0.000000           0.000000    0.000000    0.000000
   310 Ar1   c      0.000000           0.000000    0.000000    0.000000
   311 Ar1   c      0.000000           0.000000    0.000000    0.000000
   312 Ar1   c      0.000000           0.000000    0.000000    0.000000
   313 Ar1   c      0.000000           0.000000    0.000000    0.000000
   314 Ar1   c      0.000000           0.000000    0.000000    0.000000
   315 Ar1   c      0.000000           0.000000    0.000000    0.000000
   316 Ar1   c      0.000000           0.000000    0.000000    0.000000
   317 Ar1   c      0.000000           0.000000    0.000000    0.000000
   318 Ar1   c      0.000000           0.000000    0.000000    0.000000
   319 Ar1   c      0.000000           0.000000    0.000000    0.000000
   320 Ar1   c      0.000000           0.000000    0.000000    0.000000
   321 Ar1   c      0.000000           0.000000    0.000000    0.000000
   322 Ar1   c      0.000000           0.000000    0.000000    0.000000
   323 Ar1   c      0.000000           0.000000    0.000000    0.000000
   324 Ar1   c      0.000000           0.000000    0.000000    0.000000
   325 Ar1   c      0.000000           0.000000    0.000000    0.000000
   326 Ar1   c      0.000000           0.000000    0.000000    0.000000
   327 Ar1   c      0.000000           0.000000    0.000000    0.000000
   328 Ar1   c      0.000000           0.000000    0.000000    0.000000
   329 Ar1   c      0.000000           0.000000    0.000000    0.000000
   330 Ar1   c      0.000000           0.000000    0.000000    0.000000
   331 Ar1   c      0.000000           0.000000    0.000000    0.000000
   332 Ar1   c      0.000000           0.000000    0.000000    0.000000
   333 Ar1   c      0.000000           0.000000    0.000000    0.000000
   334 Ar1   c      0.000000           0.000000    0.000000    0.000000
   335 Ar1   c      0.000000           0.000000    0.000000    0.000000
   336 Ar1   c      0.000000           0.000000    0.000000    0.000000
   337 Ar1   c      0.000000           0.000000    0.000000    0.000000
   338 Ar1   c      0.000000           0.000000    0.000000    0.000000
   339 Ar1   c      0.000000           0.000000    0.000000    0.000000
   340 Ar1   c      0.000000           0.000000    0.000000    0.000000
   341 Ar1   c      0.000000           0.000000    0.000000    0.000000
   342 Ar1   c      0.000000           0.000000    0.000000    0.000000
   343 Ar1   c      0.000000           0.000000    0.000000    0.000000
   344 Ar1   c      0.000000           0.000000    0.000000    0.000000
   345 Ar1   c      0.000000           0.000000    0.000000    0.000000
   346 Ar1   c      0.000000           0.000000    0.000000    0.000000
   347 Ar1   c      0.000000           0.000000    0.000000    0.000000
   348 Ar1   c      0.000000           0.000000    0.000000    0.000000
   349 Ar1   c      0.000000           0.000000    0.000000    0.000000
   350 Ar1   c      0.000000           0.000000    0.000000    0.000000
   351 Ar1   c      0.000000           0.000000    0.000000    0.000000
   352 Ar1   c      0.000000           0.000000    0.000000    0.000000
   353 Ar1   c      0.000000           0.000000    0.000000    0.000000
   354 Ar1   c      0.000000           0.000000    0.000000    0.000000
   355 Ar1   c      0.000000           0.000000    0.000000    0.000000
   356 Ar1   c      0.000000           0.000000    0.000000    0.000000
   357 Ar1   c      0.000000           0.000000    0.000000    0.000000
   358 Ar1   c      0.000000           0.000000    0.000000    0.000000
   359 Ar1   c      0.000000           0.000000    0.000000    0.000000
   360 Ar1   c      0.000000           0.000000    0.000000    0.000000
   361 Ar1   c      0.000000           0.000000    0.000000    0.000000
   362 Ar1   c      0.000000           0.000000    0.000000    0.000000
   363 Ar1   c      0.000000           0.000000    0.000000    0.000000
   364 Ar1   c      0.000000           0.000000    0.000000    0.000000
   365 Ar1   c      0.000000           0.000000    0.000000    0.000000
   366 Ar1   c      0.000000           0.000000    0.000000    0.000000
   367 Ar1   c      0.000000           0.000000    0.000000    0.000000
   368 Ar1   c      0.000000           0.000000    0.000000    0.000000
   369 Ar1   c      0.000000           0.000000    0.000000    0.000000
   370 Ar1   c      0.000000           0.000000    0.000000    0.000000
   371 Ar1   c      0.000000           0.000000    0.000000    0.000000
   372 Ar1   c      0.000000           0.000000    0.000000    0.000000
   373 Ar1   c      0.000000           0.000000    0.000000    0.000000
   374 Ar1   c      0.000000           0.000000    0.000000    0.000000
   375 Ar1   c      0.000000           0.000000    0.000000    0.000000
   376 Ar1   c      0.000000           0.000000    0.000000    0.000000
   377 Ar1   c      0.000000           0.000000    0.000000    0.000000
   378 Ar1   c      0.000000           0.000000    0.000000    0.000000
   379 Ar1   c      0.000000           0.000000    0.000000    0.000000
   380 Ar1   c      0.000000           0.000000    0.000000    0.000000
   381 Ar1   c      0.000000           0.000000    0.000000    0.000000
   382 Ar1   c      0.000000           0.000000    0.000000    0.000000
   383 Ar1   c      0.000000           0.000000    0.000000    0.000000
   384 Ar1   c      0.000000           0.000000    0.000000    0.000000
   385 Ar1   c      0.000000           0.000000    0.000000    0.000000
   386 Ar1   c      0.000000           0.000000    0.000000    0.000000
   387 Ar1   c      0.000000           0.000000    0.000000    0.000000
   388 Ar1   c      0.000000           0.000000    0.000000    0.000000
   389 Ar1   c      0.000000           0.000000    0.000000    0.000000
   390 Ar1   c      0.000000           0.000000    0.000000    0.000000
   391 Ar1   c      0.000000           0.000000    0.000000    0.000000
   392 Ar1   c      0.000000           0.000000    0.000000    0.000000
   393 Ar1   c      0.000000           0.000000    0.000000    0.000000
   394 Ar1   c      0.000000           0.000000    0.000000    0.000000
   395 Ar1   c      0.000000           0.000000    0.000000    0.000000
   396 Ar1   c      0.000000           0.000000    0.000000    0.000000
   397 Ar1   c      0.000000           0.000000    0.000000    0.000000
   398 Ar1   c      0.000000           0.000000    0.000000    0.000000
   399 Ar1   c      0.000000           0.000000    0.000000    0.000000
   400 Ar1   c      0.000000           0.000000    0.000000    0.000000
   401 Ar1   c      0.000000           0.000000    0.000000    0.000000
   402 Ar1   c      0.000000           0.000000    0.000000    0.000000
   403 Ar1   c      0.000000           0.000000    0.000000    0.000000
   404 Ar1   c      0.000000           0.000000    0.000000    0.000000
   405 Ar1   c      0.000000           0.000000    0.000000    0.000000
   406 Ar1   c      0.000000           0.000000    0.000000    0.000000
   407 Ar1   c      0.000000           0.000000    0.000000    0.000000
   408 Ar1   c      0.000000           0.000000    0.000000    0.000000
   409 Ar1   c      0.000000           0.000000    0.000000    0.000000
   410 Ar1   c      0.000000           0.000000    0.000000    0.000000
   411 Ar1   c      0.000000           0.000000    0.000000    0.000000
   412 Ar1   c      0.000000           0.000000    0.000000    0.000000
   413 Ar1   c      0.000000           0.000000    0.000000    0.000000
   414 Ar1   c      0.000000           0.000000    0.000000    0.000000
   415 Ar1   c      0.000000           0.000000    0.000000    0.000000
   416 Ar1   c      0.000000           0.000000    0.000000    0.000000
   417 Ar1   c      0.000000           0.000000    0.000000    0.000000
   418 Ar1   c      0.000000           0.000000    0.000000    0.000000
   419 Ar1   c      0.000000           0.000000    0.000000    0.000000
[...]
      317       0.0000    0.0000    0.0000             0.0000        0.0000
      318       0.0000    0.0000    0.0000             0.0000        0.0000
      319       0.0000    0.0000    0.0000             0.0000        0.0000
      320       0.0000    0.0000    0.0000             0.0000        0.0000
      321       0.0000    0.0000    0.0000             0.0000        0.0000
      322       0.0000    0.0000    0.0000             0.0000        0.0000
      323       0.0000    0.0000    0.0000             0.0000        0.0000
      324       0.0000    0.0000    0.0000             0.0000        0.0000
      325       0.0000    0.0000    0.0000             0.0000        0.0000
      326       0.0000    0.0000    0.0000             0.0000        0.0000
      327       0.0000    0.0000    0.0000             0.0000        0.0000
      328       0.0000    0.0000    0.0000             0.0000        0.0000
      329       0.0000    0.0000    0.0000             0.0000        0.0000
      330       0.0000    0.0000    0.0000             0.0000        0.0000
      331       0.0000    0.0000    0.0000             0.0000        0.0000
      332       0.0000    0.0000    0.0000             0.0000        0.0000
      333       0.0000    0.0000    0.0000             0.0000        0.0000
      334       0.0000    0.0000    0.0000             0.0000        0.0000
      335       0.0000    0.0000    0.0000             0.0000        0.0000
      336       0.0000    0.0000    0.0000             0.0000        0.0000
      337       0.0000    0.0000    0.0000             0.0000        0.0000
      338       0.0000    0.0000    0.0000             0.0000        0.0000
      339       0.0000    0.0000    0.0000             0.0000        0.0000
      340       0.0000    0.0000    0.0000             0.0000        0.0000
      341       0.0000    0.0000    0.0000             0.0000        0.0000
      342       0.0000    0.0000    0.0000             0.0000        0.0000
      343       0.0000    0.0000    0.0000             0.0000        0.0000
      344       0.0000    0.0000    0.0000             0.0000        0.0000
      345       0.0000    0.0000    0.0000             0.0000        0.0000
      346       0.0000    0.0000    0.0000             0.0000        0.0000
      347       0.0000    0.0000    0.0000             0.0000        0.0000
      348       0.0000    0.0000    0.0000             0.0000        0.0000
      349       0.0000    0.0000    0.0000             0.0000        0.0000
      350       0.0000    0.0000    0.0000             0.0000        0.0000
      351       0.0000    0.0000    0.0000             0.0000        0.0000
      352       0.0000    0.0000    0.0000             0.0000        0.0000
      353       0.0000    0.0000    0.0000             0.0000        0.0000
      354       0.0000    0.0000    0.0000             0.0000        0.0000
      355       0.0000    0.0000    0.0000             0.0000        0.0000
      356       0.0000    0.0000    0.0000             0.0000        0.0000
      357       0.0000    0.0000    0.0000             0.0000        0.0000
      358       0.0000    0.0000    0.0000             0.0000        0.0000
      359       0.0000    0.0000    0.0000             0.0000        0.0000
      360       0.0000    0.0000    0.0000             0.0000        0.0000
      361       0.0000    0.0000    0.0000             0.0000        0.0000
      362       0.0000    0.0000    0.0000             0.0000        0.0000
      363       0.0000    0.0000    0.0000             0.0000        0.0000
      364       0.0000    0.0000    0.0000             0.0000        0.0000
      365       0.0000    0.0000    0.0000             0.0000        0.0000
      366       0.0000    0.0000    0.0000             0.0000        0.0000
      367       0.0000    0.0000    0.0000             0.0000        0.0000
      368       0.0000    0.0000    0.0000             0.0000        0.0000
      369       0.0000    0.0000    0.0000             0.0000        0.0000
      370       0.0000    0.0000    0.0000             0.0000        0.0000
      371       0.0000    0.0000    0.0000             0.0000        0.0000
      372       0.0000    0.0000    0.0000             0.0000        0.0000
      373       0.0000    0.0000    0.0000             0.0000        0.0000
      374       0.0000    0.0000    0.0000             0.0000        0.0000
      375       0.0000    0.0000    0.0000             0.0000        0.0000
      376       0.0000    0.0000    0.0000             0.0000        0.0000
      377       0.0000    0.0000    0.0000             0.0000        0.0000
      378       0.0000    0.0000    0.0000             0.0000        0.0000
      379       0.0000    0.0000    0.0000             0.0000        0.0000
      380       0.0000    0.0000    0.0000             0.0000        0.0000
      381       0.0000    0.0000    0.0000             0.0000        0.0000
      382       0.0000    0.0000    0.0000             0.0000        0.0000
      383       0.0000    0.0000    0.0000             0.0000        0.0000
      384       0.0000    0.0000    0.0000             0.0000        0.0000
      385       0.0000    0.0000    0.0000             0.0000        0.0000
      386       0.0000    0.0000    0.0000             0.0000        0.0000
      387       0.0000    0.0000    0.0000             0.0000        0.0000
      388       0.0000    0.0000    0.0000             0.0000        0.0000
      389       0.0000    0.0000    0.0000             0.0000        0.0000
      390       0.0000    0.0000    0.0000             0.0000        0.0000
      391       0.0000    0.0000    0.0000             0.0000        0.0000
      392       0.0000    0.0000    0.0000             0.0000        0.0000
      393       0.0000    0.0000    0.0000             0.0000        0.0000
      394       0.0000    0.0000    0.0000             0.0000        0.0000
      395       0.0000    0.0000    0.0000             0.0000        0.0000
      396       0.0000    0.0000    0.0000             0.0000        0.0000
      397       0.0000    0.0000    0.0000             0.0000        0.0000
      398       0.0000    0.0000    0.0000             0.0000        0.0000
      399       0.0000    0.0000    0.0000             0.0000        0.0000
      400       0.0000    0.0000    0.0000             0.0000        0.0000
      401       0.0000    0.0000    0.0000             0.0000        0.0000
      402       0.0000    0.0000    0.0000             0.0000        0.0000
      403       0.0000    0.0000    0.0000             0.0000        0.0000
      404       0.0000    0.0000    0.0000             0.0000        0.0000
      405       0.0000    0.0000    0.0000             0.0000        0.0000
      406       0.0000    0.0000    0.0000             0.0000        0.0000
      407       0.0000    0.0000    0.0000             0.0000        0.0000
      408       0.0000    0.0000    0.0000             0.0000        0.0000
      409       0.0000    0.0000    0.0000             0.0000        0.0000
      410       0.0000    0.0000    0.0000             0.0000        0.0000
      411       0.0000    0.0000    0.0000             0.0000        0.0000
      412       0.0000    0.0000    0.0000             0.0000        0.0000
      413       0.0000    0.0000    0.0000             0.0000        0.0000
      414       0.0000    0.0000    0.0000             0.0000        0.0000
      415       0.0000    0.0000    0.0000             0.0000        0.0000
      416       0.0000    0.0000    0.0000             0.0000        0.0000
      417       0.0000    0.0000    0.0000             0.0000        0.0000
      418       0.0000    0.0000    0.0000             0.0000        0.0000
      419       0.0000    0.0000    0.0000             0.0000        0.0000
      420       0.0000    0.0000    0.0000             0.0000        0.0000
      421       0.0000    0.0000    0.0000             0.0000        0.0000
      422       0.0000    0.0000    0.0000             0.0000        0.0000
      423       0.0000    0.0000    0.0000             0.0000        0.0000
      424       0.0000    0.0000    0.0000             0.0000        0.0000
      425       0.0000    0.0000    0.0000             0.0000        0.0000
      426       0.0000    0.0000    0.0000             0.0000        0.0000
      427       0.0000    0.0000    0.0000             0.0000        0.0000
      428       0.0000    0.0000    0.0000             0.0000        0.0000
      429       0.0000    0.0000    0.0000             0.0000        0.0000
      430       0.0000    0.0000    0.0000             0.0000        0.0000
      431       0.0000    0.0000    0.0000             0.0000        0.0000
      432       0.0000    0.0000    0.0000             0.0000        0.0000
      433       0.0000    0.0000    0.0000             0.0000        0.0000
      434       0.0000    0.0000    0.0000             0.0000        0.0000
      435       0.0000    0.0000    0.0000             0.0000        0.0000
      436       0.0000    0.0000    0.0000             0.0000        0.0000
      437       0.0000    0.0000    0.0000             0.0000        0.0000
      438       0.0000    0.0000    0.0000             0.0000        0.0000
      439       0.0000    0.0000    0.0000             0.0000        0.0000
      440       0.0000    0.0000    0.0000             0.0000        0.0000
      441       0.0000    0.0000    0.0000             0.0000        0.0000
      442       0.0000    0.0000    0.0000             0.0000        0.0000
      443       0.0000    0.0000    0.0000             0.0000        0.0000
      444       0.0000    0.0000    0.0000             0.0000        0.0000
      445       0.0000    0.0000    0.0000             0.0000        0.0000
      446       0.0000    0.0000    0.0000             0.0000        0.0000
      447       0.0000    0.0000    0.0000             0.0000        0.0000
      448       0.0000    0.0000    0.0000             0.0000        0.0000
      449       0.0000    0.0000    0.0000             0.0000        0.0000
      450       0.0000    0.0000    0.0000             0.0000        0.0000
      451       0.0000    0.0000    0.0000             0.0000        0.0000
      452       0.0000    0.0000    0.0000             0.0000        0.0000
      453       0.0000    0.0000    0.0000             0.0000        0.0000
      454       0.0000    0.0000    0.0000             0.0000        0.0000
      455       0.0000    0.0000    0.0000             0.0000        0.0000
      456       0.0000    0.0000    0.0000             0.0000        0.0000
      457       0.0000    0.0000    0.0000             0.0000        0.0000
      458       0.0000    0.0000    0.0000             0.0000        0.0000
      459       0.0000    0.0000    0.0000             0.0000        0.0000
      460       0.0000    0.0000    0.0000             0.0000        0.0000
      461       0.0000    0.0000    0.0000             0.0000        0.0000
      462       0.0000    0.0000    0.0000             0.0000        0.0000
      463       0.0000    0.0000    0.0000             0.0000        0.0000
      464       0.0000    0.0000    0.0000             0.0000        0.0000
      465       0.0000    0.0000    0.0000             0.0000        0.0000
      466       0.0000    0.0000    0.0000             0.0000        0.0000
      467       0.0000    0.0000    0.0000             0.0000        0.0000
      468       0.0000    0.0000    0.0000             0.0000        0.0000
      469       0.0000    0.0000    0.0000             0.0000        0.0000
      470       0.0000    0.0000    0.0000             0.0000        0.0000
      471       0.0000    0.0000    0.0000             0.0000        0.0000
      472       0.0000    0.0000    0.0000             0.0000        0.0000
      473       0.0000    0.0000    0.0000             0.0000        0.0000
      474       0.0000    0.0000    0.0000             0.0000        0.0000
      475       0.0000    0.0000    0.0000             0.0000        0.0000
      476       0.0000    0.0000    0.0000             0.0000        0.0000
      477       0.0000    0.0000    0.0000             0.0000        0.0000
      478       0.0000    0.0000    0.0000             0.0000        0.0000
      479       0.0000    0.0000    0.0000             0.0000        0.0000
      480       0.0000    0.0000    0.0000             0.0000        0.0000
      481       0.0000    0.0000    0.0000             0.0000        0.0000
      482       0.0000    0.0000    0.0000             0.0000        0.0000
      483       0.0000    0.0000    0.0000             0.0000        0.0000
      484       0.0000    0.0000    0.0000             0.0000        0.0000
      485       0.0000    0.0000    0.0000             0.0000        0.0000
      486       0.0000    0.0000    0.0000             0.0000        0.0000
      487       0.0000    0.0000    0.0000             0.0000        0.0000
      488       0.0000    0.0000    0.0000             0.0000        0.0000
      489       0.0000    0.0000    0.0000             0.0000        0.0000
      490       0.0000    0.0000    0.0000             0.0000        0.0000
      491       0.0000    0.0000    0.0000             0.0000        0.0000
      492       0.0000    0.0000    0.0000             0.0000        0.0000
      493       0.0000    0.0000    0.0000             0.0000        0.0000
      494       0.0000    0.0000    0.0000             0.0000        0.0000
      495       0.0000    0.0000    0.0000             0.0000        0.0000
      496       0.0000    0.0000    0.0000             0.0000        0.0000
      497       0.0000    0.0000    0.0000             0.0000        0.0000
      498       0.0000    0.0000    0.0000             0.0000        0.0000
      499       0.0000    0.0000    0.0000             0.0000        0.0000
      500       0.0000    0.0000    0.0000             0.0000        0.0000
      501       0.0000    0.0000    0.0000             0.0000        0.0000
      502       0.0000    0.0000    0.0000             0.0000        0.0000
      503       0.0000    0.0000    0.0000             0.0000        0.0000
      504       0.0000    0.0000    0.0000             0.0000        0.0000
      505       0.0000    0.0000    0.0000             0.0000        0.0000
      506       0.0000    0.0000    0.0000             0.0000        0.0000
      507       0.0000    0.0000    0.0000             0.0000        0.0000
      508       0.0000    0.0000    0.0000             0.0000        0.0000
      509       0.0000    0.0000    0.0000             0.0000        0.0000
      510       0.0000    0.0000    0.0000             0.0000        0.0000
      511       0.0000    0.0000    0.0000             0.0000        0.0000
      512       0.0000    0.0000    0.0000             0.0000        0.0000
-------------------------------------------------------------------------------

  Total time to end of atomic site potentials =       0.1563 s


  Equations of motion will be integrated using stochastic algorithm.

********************************************************************************
*  Molecular Dynamics                                                          *
********************************************************************************

  Microcanonical ensemble (NVE) to be used

  No. of mobile ions        =                512

  No. of degrees of freedom =               1533

  Time step                 =           0.010000 ps
  Equilibration time        =           1.000000 ps
  Production time           =           5.000000 ps
  Scaling time              =           1.000000 ps
  Scaling frequency         =           0.010000 ps
  Sampling frequency        =           1.000000 ps
  Write frequency           =           1.000000 ps
  TD-Force start time       =           0.000000 ps
  TD-Field start time       =           0.000000 ps



  Molecular dynamics equilibration :

  ** Time :            1.00000 ps :
     Properties:                   Instantaneous       Averaged
       Kinetic energy    (eV) =       5.253782          5.253782
       Potential energy  (eV) =     -23.412696        -23.412696
       Total energy      (eV) =     -18.158914        -18.158914
       Temperature       (K)  =      79.540183         79.540183
       Pressure         (GPa) =       0.032752          0.032752

  Molecular dynamics production :

  ** Time :            1.00000 ps :
     Properties:                   Instantaneous       Averaged
       Kinetic energy    (eV) =       5.152443          5.152443
       Potential energy  (eV) =     -23.312103        -23.312103
       Total energy      (eV) =     -18.159660        -18.159660
       Temperature       (K)  =      78.005944         78.005944
       Pressure         (GPa) =       0.042649          0.042649
  ** Time :            2.00000 ps :
     Properties:                   Instantaneous       Averaged
       Kinetic energy    (eV) =       5.047231          5.099837
       Potential energy  (eV) =     -23.209750        -23.260926
       Total energy      (eV) =     -18.162519        -18.161089
       Temperature       (K)  =      76.413075         77.209509
       Pressure         (GPa) =       0.049181          0.045915
  ** Time :            3.00000 ps :
     Properties:                   Instantaneous       Averaged
       Kinetic energy    (eV) =       5.282950          5.160875
       Potential energy  (eV) =     -23.445106        -23.322319
       Total energy      (eV) =     -18.162156        -18.161445
       Temperature       (K)  =      79.981772         78.133597
       Pressure         (GPa) =       0.042336          0.044722
  ** Time :            4.00000 ps :
     Properties:                   Instantaneous       Averaged
       Kinetic energy    (eV) =       5.149909          5.158133
       Potential energy  (eV) =     -23.311432        -23.319597
       Total energy      (eV) =     -18.161523        -18.161464
       Temperature       (K)  =      77.967577         78.092092
       Pressure         (GPa) =       0.046261          0.045107
  ** Time :            5.00000 ps :
     Properties:                   Instantaneous       Averaged
       Kinetic energy    (eV) =       4.953909          5.117288
       Potential energy  (eV) =     -23.116259        -23.278930
       Total energy      (eV) =     -18.162350        -18.161641
       Temperature       (K)  =      75.000216         77.473717
       Pressure         (GPa) =       0.054169          0.046919

  Peak dynamic memory used =       3.65 MB 


  Timing analysis for GULP :

--------------------------------------------------------------------------------
  Task / Subroutine                                          Time (Seconds)
--------------------------------------------------------------------------------
  Calculation of real space energy and derivatives               21.1851
  Calculation of three-body energy and derivatives                0.0221
  Calculation of molecules and connectivity                       0.0002
  Calculation of matrix inversion                                 0.0011
  Molecular dynamics - update of geometry                         0.4064
  Molecular dynamics - predictor                                  0.0031
  Molecular dynamics - corrector                                  0.0035
  Molecular dynamics - velocity correction                        0.0026
  Global summation overhead                                       0.0012
--------------------------------------------------------------------------------
  Total CPU time                                                 21.7501
--------------------------------------------------------------------------------


  GULP trajectory file written as Ar_rho_0.0207125_N=512_cubic_298_TS=10.trg


  Job Finished at 17:51.19 30th July       2022                               

