********************************************************************************
*                       GENERAL UTILITY LATTICE PROGRAM                        *
*                                 Julian Gale                                  *
*                       Curtin Institute for Computation                       *
*                    School of Molecular and Life Sciences                     *
*                    Curtin University, Western Australia                      *
********************************************************************************
* Version = 6.1.0 * Last modified =   8th July 2022                            *
********************************************************************************
*  single       - perform a single point run                                   *
*  md           - perform molecular dynamics run                               *
*  conv         - constant volume calculation                                  *
*  qok          - running with non charge neutral cell is OK                   *
*  preserve_Q   - preserve coordinate line charges over species input          *
*  potential    - calculate electrostatic site potentials                      *
*  efg          - calculate electrostatic electric field gradient              *
*  nomodcoord   - do not mod input coordinates                                 *
*  molmec       - molecule option activated, Coulomb subtract 1-2/1-3 terms    *
*  noautobond   - do not compute bonds based on covalent radii                 *
********************************************************************************
* GULP calculation from Materials Studio for Ar_rho=0.0207125_N=64_cubic_60    *
********************************************************************************


  Job Started  at 12:42.57  2nd August     2022                               

  Number of CPUs =     1


  Total number of configurations input =      1

********************************************************************************
*  Input for Configuration =   1                                               *
********************************************************************************

  Formula = Ar64                                                        

  Number of irreducible atoms/shells =      64


  Total number atoms/shells =      64

  Dimensionality = 3               :  Bulk   



  Cartesian lattice vectors (Angstroms) :

       14.565000    0.000000    0.000000
        0.000000   14.565000    0.000000
        0.000000    0.000000   14.565000

  Cell parameters (Angstroms/Degrees):

  a =      14.5650    alpha =  90.0000
  b =      14.5650    beta  =  90.0000
  c =      14.5650    gamma =  90.0000

  Initial cell volume =        3089.807812 Angs**3

  Temperature of configuration =   60.0     K 

  Pressure of configuration =         0.000 GPa 

  Fractional coordinates of asymmetric unit :

--------------------------------------------------------------------------------
   No.  Atomic       x           y          z         Charge      Occupancy
        Label      (Frac)      (Frac)     (Frac)        (e)         (Frac)  
--------------------------------------------------------------------------------
      1 Ar1   c    0.000000 *  0.000000 *  0.000000 *   0.00000    1.000000    
      2 Ar1   c    0.000000 *  0.000000 *  0.249983 *   0.00000    1.000000    
      3 Ar1   c    0.000000 *  0.000000 *  0.500034 *   0.00000    1.000000    
      4 Ar1   c    0.000000 *  0.000000 *  0.750017 *   0.00000    1.000000    
      5 Ar1   c    0.000000 *  0.249983 *  0.000000 *   0.00000    1.000000    
      6 Ar1   c    0.000000 *  0.249983 *  0.249983 *   0.00000    1.000000    
      7 Ar1   c    0.000000 *  0.249983 *  0.500034 *   0.00000    1.000000    
      8 Ar1   c    0.000000 *  0.249983 *  0.750017 *   0.00000    1.000000    
      9 Ar1   c    0.000000 *  0.500034 *  0.000000 *   0.00000    1.000000    
     10 Ar1   c    0.000000 *  0.500034 *  0.249983 *   0.00000    1.000000    
     11 Ar1   c    0.000000 *  0.500034 *  0.500034 *   0.00000    1.000000    
     12 Ar1   c    0.000000 *  0.500034 *  0.750017 *   0.00000    1.000000    
     13 Ar1   c    0.000000 *  0.750017 *  0.000000 *   0.00000    1.000000    
     14 Ar1   c    0.000000 *  0.750017 *  0.249983 *   0.00000    1.000000    
     15 Ar1   c    0.000000 *  0.750017 *  0.500034 *   0.00000    1.000000    
     16 Ar1   c    0.000000 *  0.750017 *  0.750017 *   0.00000    1.000000    
     17 Ar1   c    0.249983 *  0.000000 *  0.000000 *   0.00000    1.000000    
     18 Ar1   c    0.249983 *  0.000000 *  0.249983 *   0.00000    1.000000    
     19 Ar1   c    0.249983 *  0.000000 *  0.500034 *   0.00000    1.000000    
     20 Ar1   c    0.249983 *  0.000000 *  0.750017 *   0.00000    1.000000    
     21 Ar1   c    0.249983 *  0.249983 *  0.000000 *   0.00000    1.000000    
     22 Ar1   c    0.249983 *  0.249983 *  0.249983 *   0.00000    1.000000    
     23 Ar1   c    0.249983 *  0.249983 *  0.500034 *   0.00000    1.000000    
     24 Ar1   c    0.249983 *  0.249983 *  0.750017 *   0.00000    1.000000    
     25 Ar1   c    0.249983 *  0.500034 *  0.000000 *   0.00000    1.000000    
     26 Ar1   c    0.249983 *  0.500034 *  0.249983 *   0.00000    1.000000    
     27 Ar1   c    0.249983 *  0.500034 *  0.500034 *   0.00000    1.000000    
     28 Ar1   c    0.249983 *  0.500034 *  0.750017 *   0.00000    1.000000    
     29 Ar1   c    0.249983 *  0.750017 *  0.000000 *   0.00000    1.000000    
     30 Ar1   c    0.249983 *  0.750017 *  0.249983 *   0.00000    1.000000    
     31 Ar1   c    0.249983 *  0.750017 *  0.500034 *   0.00000    1.000000    
     32 Ar1   c    0.249983 *  0.750017 *  0.750017 *   0.00000    1.000000    
     33 Ar1   c    0.500034 *  0.000000 *  0.000000 *   0.00000    1.000000    
     34 Ar1   c    0.500034 *  0.000000 *  0.249983 *   0.00000    1.000000    
     35 Ar1   c    0.500034 *  0.000000 *  0.500034 *   0.00000    1.000000    
     36 Ar1   c    0.500034 *  0.000000 *  0.750017 *   0.00000    1.000000    
     37 Ar1   c    0.500034 *  0.249983 *  0.000000 *   0.00000    1.000000    
     38 Ar1   c    0.500034 *  0.249983 *  0.249983 *   0.00000    1.000000    
     39 Ar1   c    0.500034 *  0.249983 *  0.500034 *   0.00000    1.000000    
     40 Ar1   c    0.500034 *  0.249983 *  0.750017 *   0.00000    1.000000    
     41 Ar1   c    0.500034 *  0.500034 *  0.000000 *   0.00000    1.000000    
     42 Ar1   c    0.500034 *  0.500034 *  0.249983 *   0.00000    1.000000    
     43 Ar1   c    0.500034 *  0.500034 *  0.500034 *   0.00000    1.000000    
     44 Ar1   c    0.500034 *  0.500034 *  0.750017 *   0.00000    1.000000    
     45 Ar1   c    0.500034 *  0.750017 *  0.000000 *   0.00000    1.000000    
     46 Ar1   c    0.500034 *  0.750017 *  0.249983 *   0.00000    1.000000    
     47 Ar1   c    0.500034 *  0.750017 *  0.500034 *   0.00000    1.000000    
     48 Ar1   c    0.500034 *  0.750017 *  0.750017 *   0.00000    1.000000    
     49 Ar1   c    0.750017 *  0.000000 *  0.000000 *   0.00000    1.000000    
     50 Ar1   c    0.750017 *  0.000000 *  0.249983 *   0.00000    1.000000    
     51 Ar1   c    0.750017 *  0.000000 *  0.500034 *   0.00000    1.000000    
     52 Ar1   c    0.750017 *  0.000000 *  0.750017 *   0.00000    1.000000    
     53 Ar1   c    0.750017 *  0.249983 *  0.000000 *   0.00000    1.000000    
     54 Ar1   c    0.750017 *  0.249983 *  0.249983 *   0.00000    1.000000    
     55 Ar1   c    0.750017 *  0.249983 *  0.500034 *   0.00000    1.000000    
     56 Ar1   c    0.750017 *  0.249983 *  0.750017 *   0.00000    1.000000    
     57 Ar1   c    0.750017 *  0.500034 *  0.000000 *   0.00000    1.000000    
     58 Ar1   c    0.750017 *  0.500034 *  0.249983 *   0.00000    1.000000    
     59 Ar1   c    0.750017 *  0.500034 *  0.500034 *   0.00000    1.000000    
     60 Ar1   c    0.750017 *  0.500034 *  0.750017 *   0.00000    1.000000    
     61 Ar1   c    0.750017 *  0.750017 *  0.000000 *   0.00000    1.000000    
     62 Ar1   c    0.750017 *  0.750017 *  0.249983 *   0.00000    1.000000    
     63 Ar1   c    0.750017 *  0.750017 *  0.500034 *   0.00000    1.000000    
     64 Ar1   c    0.750017 *  0.750017 *  0.750017 *   0.00000    1.000000    
--------------------------------------------------------------------------------



  Molecule list generated from bond lengths :

  Total number of molecules =     0


********************************************************************************
*  General input information                                                   *
********************************************************************************

  Species output for all configurations : 

--------------------------------------------------------------------------------
  Species    Type    Atomic    Atomic    Charge       Radii (Angs)     Library
                     Number     Mass       (e)     Cova   Ionic  VDW   Symbol
--------------------------------------------------------------------------------
    Ar1      Core       18      39.95   0.000000   0.000  0.000  0.000 Ar4+4    
--------------------------------------------------------------------------------


  Universal Force Field (UFF) species output: 

--------------------------------------------------------------------------------
  Species    Type    Radius    Theta    Distance    Energy     Zeta     Zeff    
                     (Ang)   (degrees)   (Ang)       (eV)               (e)     
--------------------------------------------------------------------------------
    Ar1      Core    1.0320    90.000     3.8680    0.0080   15.7630   0.2994
--------------------------------------------------------------------------------


  Lattice summation method               =    Ewald          (3-D)
                                         =    Parry          (2-D)
                                         =    Saunders et al (1-D)
  Accuracy factor for lattice sums       =   12.000


  Analytic derivatives to be used

  Time limit = Infinity

  Maximum range for interatomic potentials =    100000.000000 Angstroms

  General interatomic potentials :

--------------------------------------------------------------------------------
Atom  Types   Potential      Parameter       Value         Units   Cutoffs(Ang)
  1     2                                                            Min /  Max 
--------------------------------------------------------------------------------
Ar1  c Ar1  c Lennard       Lennard-Jones A  89979.376    eV*Ang^m  3Bond 10.000
                            Lennard-Jones B  53.734620    eV*Ang^n  
                            Exponent m        12          None
                            Exponent n         6          None
--------------------------------------------------------------------------------

  Intramolecular potentials :

--------------------------------------------------------------------------------
Atom  Types   Potential      Parameter       Value         Units   Cutoffs(Ang)
  1     2                                                            Min /  Max 
--------------------------------------------------------------------------------
Ar1  c Ar1  c Harmonic      Harmonic k2     0.29359911    eV*Ang^-2 0.000 1 Bond
                            Harmonic r0      2.0640000    Ang       
                            Harmonic k3      0.0000000    eV*Ang^-3 
                            Harmonic k4      0.0000000    eV*Ang^-4 
                                                                    single   cyc
--------------------------------------------------------------------------------

  Intramolecular Three-body potentials :

--------------------------------------------------------------------------------
  Atoms       Potential      Parameter       Value         Units   Cutoffs(Ang)
  1 / 2 / 3                                                          Min /  Max 
--------------------------------------------------------------------------------
Ar1   core    Linear 3-body Three-body cnst 0.97315276E-02eV        0.000 1 Bond
Ar1   core                  Three-body sign -1.0000000    None      0.000 1 Bond
Ar1   core                                                          0.000
--------------------------------------------------------------------------------

********************************************************************************
*  Output for configuration   1                                                *
********************************************************************************


  Components of energy : 

--------------------------------------------------------------------------------
  Interatomic potentials     =          -2.75724948 eV    
  Three-body potentials      =           0.00000000 eV    
  Monopole - monopole (real) =           0.00000000 eV    
  Monopole - monopole (recip)=           0.00000000 eV    
  Monopole - monopole (total)=           0.00000000 eV    
--------------------------------------------------------------------------------
  Total lattice energy       =          -2.75724948 eV    
--------------------------------------------------------------------------------
  Total lattice energy       =            -266.0324 kJ/(mole unit cells)
--------------------------------------------------------------------------------

  MSI Archive (version 3) open for Movie as Ar_rho_0.0207125_N=64_cubic_60_TS=01_3D.arc



  Electrostatic potential at atomic positions :

-------------------------------------------------------------------------------
 Site  Atomic      Potential                Derivatives (V/Angs)
 No.   Label          (V)                 x           y           z
-------------------------------------------------------------------------------
     1 Ar1   c      0.000000           0.000000    0.000000    0.000000
     2 Ar1   c      0.000000           0.000000    0.000000    0.000000
     3 Ar1   c      0.000000           0.000000    0.000000    0.000000
     4 Ar1   c      0.000000           0.000000    0.000000    0.000000
     5 Ar1   c      0.000000           0.000000    0.000000    0.000000
     6 Ar1   c      0.000000           0.000000    0.000000    0.000000
     7 Ar1   c      0.000000           0.000000    0.000000    0.000000
     8 Ar1   c      0.000000           0.000000    0.000000    0.000000
     9 Ar1   c      0.000000           0.000000    0.000000    0.000000
    10 Ar1   c      0.000000           0.000000    0.000000    0.000000
    11 Ar1   c      0.000000           0.000000    0.000000    0.000000
    12 Ar1   c      0.000000           0.000000    0.000000    0.000000
    13 Ar1   c      0.000000           0.000000    0.000000    0.000000
    14 Ar1   c      0.000000           0.000000    0.000000    0.000000
    15 Ar1   c      0.000000           0.000000    0.000000    0.000000
    16 Ar1   c      0.000000           0.000000    0.000000    0.000000
    17 Ar1   c      0.000000           0.000000    0.000000    0.000000
    18 Ar1   c      0.000000           0.000000    0.000000    0.000000
    19 Ar1   c      0.000000           0.000000    0.000000    0.000000
    20 Ar1   c      0.000000           0.000000    0.000000    0.000000
    21 Ar1   c      0.000000           0.000000    0.000000    0.000000
    22 Ar1   c      0.000000           0.000000    0.000000    0.000000
    23 Ar1   c      0.000000           0.000000    0.000000    0.000000
    24 Ar1   c      0.000000           0.000000    0.000000    0.000000
    25 Ar1   c      0.000000           0.000000    0.000000    0.000000
    26 Ar1   c      0.000000           0.000000    0.000000    0.000000
    27 Ar1   c      0.000000           0.000000    0.000000    0.000000
    28 Ar1   c      0.000000           0.000000    0.000000    0.000000
    29 Ar1   c      0.000000           0.000000    0.000000    0.000000
    30 Ar1   c      0.000000           0.000000    0.000000    0.000000
    31 Ar1   c      0.000000           0.000000    0.000000    0.000000
    32 Ar1   c      0.000000           0.000000    0.000000    0.000000
    33 Ar1   c      0.000000           0.000000    0.000000    0.000000
    34 Ar1   c      0.000000           0.000000    0.000000    0.000000
    35 Ar1   c      0.000000           0.000000    0.000000    0.000000
    36 Ar1   c      0.000000           0.000000    0.000000    0.000000
    37 Ar1   c      0.000000           0.000000    0.000000    0.000000
    38 Ar1   c      0.000000           0.000000    0.000000    0.000000
    39 Ar1   c      0.000000           0.000000    0.000000    0.000000
    40 Ar1   c      0.000000           0.000000    0.000000    0.000000
    41 Ar1   c      0.000000           0.000000    0.000000    0.000000
    42 Ar1   c      0.000000           0.000000    0.000000    0.000000
    43 Ar1   c      0.000000           0.000000    0.000000    0.000000
    44 Ar1   c      0.000000           0.000000    0.000000    0.000000
    45 Ar1   c      0.000000           0.000000    0.000000    0.000000
    46 Ar1   c      0.000000           0.000000    0.000000    0.000000
    47 Ar1   c      0.000000           0.000000    0.000000    0.000000
    48 Ar1   c      0.000000           0.000000    0.000000    0.000000
    49 Ar1   c      0.000000           0.000000    0.000000    0.000000
    50 Ar1   c      0.000000           0.000000    0.000000    0.000000
    51 Ar1   c      0.000000           0.000000    0.000000    0.000000
    52 Ar1   c      0.000000           0.000000    0.000000    0.000000
    53 Ar1   c      0.000000           0.000000    0.000000    0.000000
    54 Ar1   c      0.000000           0.000000    0.000000    0.000000
    55 Ar1   c      0.000000           0.000000    0.000000    0.000000
    56 Ar1   c      0.000000           0.000000    0.000000    0.000000
    57 Ar1   c      0.000000           0.000000    0.000000    0.000000
    58 Ar1   c      0.000000           0.000000    0.000000    0.000000
    59 Ar1   c      0.000000           0.000000    0.000000    0.000000
    60 Ar1   c      0.000000           0.000000    0.000000    0.000000
    61 Ar1   c      0.000000           0.000000    0.000000    0.000000
    62 Ar1   c      0.000000           0.000000    0.000000    0.000000
    63 Ar1   c      0.000000           0.000000    0.000000    0.000000
    64 Ar1   c      0.000000           0.000000    0.000000    0.000000
-------------------------------------------------------------------------------


  Electric Field Gradients at atomic positions :

-------------------------------------------------------------------------------
   Site no.                      EFGs (V/Angs**2)
                xx        xy        yy        xz        yz        zz
-------------------------------------------------------------------------------
        1      0.0000    0.0000    0.0000    0.0000    0.0000    0.0000
        2      0.0000    0.0000    0.0000    0.0000    0.0000    0.0000
        3      0.0000    0.0000    0.0000    0.0000    0.0000    0.0000
        4      0.0000    0.0000    0.0000    0.0000    0.0000    0.0000
        5      0.0000    0.0000    0.0000    0.0000    0.0000    0.0000
        6      0.0000    0.0000    0.0000    0.0000    0.0000    0.0000
        7      0.0000    0.0000    0.0000    0.0000    0.0000    0.0000
        8      0.0000    0.0000    0.0000    0.0000    0.0000    0.0000
        9      0.0000    0.0000    0.0000    0.0000    0.0000    0.0000
       10      0.0000    0.0000    0.0000    0.0000    0.0000    0.0000
       11      0.0000    0.0000    0.0000    0.0000    0.0000    0.0000
       12      0.0000    0.0000    0.0000    0.0000    0.0000    0.0000
       13      0.0000    0.0000    0.0000    0.0000    0.0000    0.0000
       14      0.0000    0.0000    0.0000    0.0000    0.0000    0.0000
       15      0.0000    0.0000    0.0000    0.0000    0.0000    0.0000
       16      0.0000    0.0000    0.0000    0.0000    0.0000    0.0000
       17      0.0000    0.0000    0.0000    0.0000    0.0000    0.0000
       18      0.0000    0.0000    0.0000    0.0000    0.0000    0.0000
       19      0.0000    0.0000    0.0000    0.0000    0.0000    0.0000
       20      0.0000    0.0000    0.0000    0.0000    0.0000    0.0000
       21      0.0000    0.0000    0.0000    0.0000    0.0000    0.0000
       22      0.0000    0.0000    0.0000    0.0000    0.0000    0.0000
       23      0.0000    0.0000    0.0000    0.0000    0.0000    0.0000
       24      0.0000    0.0000    0.0000    0.0000    0.0000    0.0000
       25      0.0000    0.0000    0.0000    0.0000    0.0000    0.0000
       26      0.0000    0.0000    0.0000    0.0000    0.0000    0.0000
       27      0.0000    0.0000    0.0000    0.0000    0.0000    0.0000
       28      0.0000    0.0000    0.0000    0.0000    0.0000    0.0000
       29      0.0000    0.0000    0.0000    0.0000    0.0000    0.0000
       30      0.0000    0.0000    0.0000    0.0000    0.0000    0.0000
       31      0.0000    0.0000    0.0000    0.0000    0.0000    0.0000
       32      0.0000    0.0000    0.0000    0.0000    0.0000    0.0000
       33      0.0000    0.0000    0.0000    0.0000    0.0000    0.0000
       34      0.0000    0.0000    0.0000    0.0000    0.0000    0.0000
       35      0.0000    0.0000    0.0000    0.0000    0.0000    0.0000
       36      0.0000    0.0000    0.0000    0.0000    0.0000    0.0000
       37      0.0000    0.0000    0.0000    0.0000    0.0000    0.0000
       38      0.0000    0.0000    0.0000    0.0000    0.0000    0.0000
       39      0.0000    0.0000    0.0000    0.0000    0.0000    0.0000
       40      0.0000    0.0000    0.0000    0.0000    0.0000    0.0000
       41      0.0000    0.0000    0.0000    0.0000    0.0000    0.0000
       42      0.0000    0.0000    0.0000    0.0000    0.0000    0.0000
       43      0.0000    0.0000    0.0000    0.0000    0.0000    0.0000
       44      0.0000    0.0000    0.0000    0.0000    0.0000    0.0000
       45      0.0000    0.0000    0.0000    0.0000    0.0000    0.0000
       46      0.0000    0.0000    0.0000    0.0000    0.0000    0.0000
       47      0.0000    0.0000    0.0000    0.0000    0.0000    0.0000
       48      0.0000    0.0000    0.0000    0.0000    0.0000    0.0000
       49      0.0000    0.0000    0.0000    0.0000    0.0000    0.0000
       50      0.0000    0.0000    0.0000    0.0000    0.0000    0.0000
       51      0.0000    0.0000    0.0000    0.0000    0.0000    0.0000
       52      0.0000    0.0000    0.0000    0.0000    0.0000    0.0000
       53      0.0000    0.0000    0.0000    0.0000    0.0000    0.0000
       54      0.0000    0.0000    0.0000    0.0000    0.0000    0.0000
       55      0.0000    0.0000    0.0000    0.0000    0.0000    0.0000
       56      0.0000    0.0000    0.0000    0.0000    0.0000    0.0000
       57      0.0000    0.0000    0.0000    0.0000    0.0000    0.0000
       58      0.0000    0.0000    0.0000    0.0000    0.0000    0.0000
       59      0.0000    0.0000    0.0000    0.0000    0.0000    0.0000
       60      0.0000    0.0000    0.0000    0.0000    0.0000    0.0000
       61      0.0000    0.0000    0.0000    0.0000    0.0000    0.0000
       62      0.0000    0.0000    0.0000    0.0000    0.0000    0.0000
       63      0.0000    0.0000    0.0000    0.0000    0.0000    0.0000
       64      0.0000    0.0000    0.0000    0.0000    0.0000    0.0000
-------------------------------------------------------------------------------


  EFG Tensor properties :

-------------------------------------------------------------------------------
   Site no.    Diagonalised EFGs (V/Angs**2)          eVzz/h        Asymmetry
                 xx        yy        zz             (MHz/barn)      Parameter
-------------------------------------------------------------------------------
        1       0.0000    0.0000    0.0000             0.0000        0.0000
        2       0.0000    0.0000    0.0000             0.0000        0.0000
        3       0.0000    0.0000    0.0000             0.0000        0.0000
        4       0.0000    0.0000    0.0000             0.0000        0.0000
        5       0.0000    0.0000    0.0000             0.0000        0.0000
        6       0.0000    0.0000    0.0000             0.0000        0.0000
        7       0.0000    0.0000    0.0000             0.0000        0.0000
        8       0.0000    0.0000    0.0000             0.0000        0.0000
        9       0.0000    0.0000    0.0000             0.0000        0.0000
       10       0.0000    0.0000    0.0000             0.0000        0.0000
       11       0.0000    0.0000    0.0000             0.0000        0.0000
       12       0.0000    0.0000    0.0000             0.0000        0.0000
       13       0.0000    0.0000    0.0000             0.0000        0.0000
       14       0.0000    0.0000    0.0000             0.0000        0.0000
       15       0.0000    0.0000    0.0000             0.0000        0.0000
       16       0.0000    0.0000    0.0000             0.0000        0.0000
       17       0.0000    0.0000    0.0000             0.0000        0.0000
       18       0.0000    0.0000    0.0000             0.0000        0.0000
       19       0.0000    0.0000    0.0000             0.0000        0.0000
       20       0.0000    0.0000    0.0000             0.0000        0.0000
       21       0.0000    0.0000    0.0000             0.0000        0.0000
       22       0.0000    0.0000    0.0000             0.0000        0.0000
       23       0.0000    0.0000    0.0000             0.0000        0.0000
       24       0.0000    0.0000    0.0000             0.0000        0.0000
       25       0.0000    0.0000    0.0000             0.0000        0.0000
       26       0.0000    0.0000    0.0000             0.0000        0.0000
       27       0.0000    0.0000    0.0000             0.0000        0.0000
       28       0.0000    0.0000    0.0000             0.0000        0.0000
       29       0.0000    0.0000    0.0000             0.0000        0.0000
       30       0.0000    0.0000    0.0000             0.0000        0.0000
       31       0.0000    0.0000    0.0000             0.0000        0.0000
       32       0.0000    0.0000    0.0000             0.0000        0.0000
       33       0.0000    0.0000    0.0000             0.0000        0.0000
       34       0.0000    0.0000    0.0000             0.0000        0.0000
       35       0.0000    0.0000    0.0000             0.0000        0.0000
       36       0.0000    0.0000    0.0000             0.0000        0.0000
       37       0.0000    0.0000    0.0000             0.0000        0.0000
       38       0.0000    0.0000    0.0000             0.0000        0.0000
       39       0.0000    0.0000    0.0000             0.0000        0.0000
       40       0.0000    0.0000    0.0000             0.0000        0.0000
       41       0.0000    0.0000    0.0000             0.0000        0.0000
       42       0.0000    0.0000    0.0000             0.0000        0.0000
       43       0.0000    0.0000    0.0000             0.0000        0.0000
       44       0.0000    0.0000    0.0000             0.0000        0.0000
       45       0.0000    0.0000    0.0000             0.0000        0.0000
       46       0.0000    0.0000    0.0000             0.0000        0.0000
       47       0.0000    0.0000    0.0000             0.0000        0.0000
       48       0.0000    0.0000    0.0000             0.0000        0.0000
       49       0.0000    0.0000    0.0000             0.0000        0.0000
       50       0.0000    0.0000    0.0000             0.0000        0.0000
       51       0.0000    0.0000    0.0000             0.0000        0.0000
       52       0.0000    0.0000    0.0000             0.0000        0.0000
       53       0.0000    0.0000    0.0000             0.0000        0.0000
       54       0.0000    0.0000    0.0000             0.0000        0.0000
       55       0.0000    0.0000    0.0000             0.0000        0.0000
       56       0.0000    0.0000    0.0000             0.0000        0.0000
       57       0.0000    0.0000    0.0000             0.0000        0.0000
       58       0.0000    0.0000    0.0000             0.0000        0.0000
       59       0.0000    0.0000    0.0000             0.0000        0.0000
       60       0.0000    0.0000    0.0000             0.0000        0.0000
       61       0.0000    0.0000    0.0000             0.0000        0.0000
       62       0.0000    0.0000    0.0000             0.0000        0.0000
       63       0.0000    0.0000    0.0000             0.0000        0.0000
       64       0.0000    0.0000    0.0000             0.0000        0.0000
-------------------------------------------------------------------------------

  Total time to end of atomic site potentials =       0.0196 s


  Equations of motion will be integrated using stochastic algorithm.

********************************************************************************
*  Molecular Dynamics                                                          *
********************************************************************************

  Microcanonical ensemble (NVE) to be used

  No. of mobile ions        =                 64

  No. of degrees of freedom =                189

  Time step                 =           0.000100 ps
  Equilibration time        =           1.000000 ps
  Production time           =           5.000000 ps
  Scaling time              =           1.000000 ps
  Scaling frequency         =           0.000100 ps
  Sampling frequency        =           0.010000 ps
  Write frequency           =           0.010000 ps
  TD-Force start time       =           0.000000 ps
  TD-Field start time       =           0.000000 ps



  Molecular dynamics equilibration :

  ** Time :            0.01000 ps :
     Properties:                   Instantaneous       Averaged
       Kinetic energy    (eV) =       0.486036          0.486036
       Potential energy  (eV) =      -2.754682         -2.754682
       Total energy      (eV) =      -2.268646         -2.268646
       Temperature       (K)  =      59.684682         59.684682
       Pressure         (GPa) =       0.072445          0.072445
  ** Time :            0.02000 ps :
     Properties:                   Instantaneous       Averaged
       Kinetic energy    (eV) =       0.478484          0.482260
       Potential energy  (eV) =      -2.747130         -2.750906
       Total energy      (eV) =      -2.268646         -2.268646
       Temperature       (K)  =      58.757381         59.221032
       Pressure         (GPa) =       0.074210          0.073328
  ** Time :            0.03000 ps :
     Properties:                   Instantaneous       Averaged
       Kinetic energy    (eV) =       0.466148          0.476889
       Potential energy  (eV) =      -2.734794         -2.745535
       Total energy      (eV) =      -2.268646         -2.268646
       Temperature       (K)  =      57.242525         58.561530
       Pressure         (GPa) =       0.077089          0.074581
  ** Time :            0.04000 ps :
     Properties:                   Instantaneous       Averaged
       Kinetic energy    (eV) =       0.449350          0.470004
       Potential energy  (eV) =      -2.717996         -2.738651
       Total energy      (eV) =      -2.268646         -2.268646
       Temperature       (K)  =      55.179733         57.716081
       Pressure         (GPa) =       0.081000          0.076186
  ** Time :            0.05000 ps :
     Properties:                   Instantaneous       Averaged
       Kinetic energy    (eV) =       0.428554          0.461714
       Potential energy  (eV) =      -2.697200         -2.730361
       Total energy      (eV) =      -2.268646         -2.268646
       Temperature       (K)  =      52.625994         56.698063
       Pressure         (GPa) =       0.085830          0.078115
  ** Time :            0.06000 ps :
     Properties:                   Instantaneous       Averaged
       Kinetic energy    (eV) =       0.404386          0.452160
       Potential energy  (eV) =      -2.673032         -2.720806
       Total energy      (eV) =      -2.268646         -2.268646
       Temperature       (K)  =      49.658204         55.524754
       Pressure         (GPa) =       0.091426          0.080333
  ** Time :            0.07000 ps :
     Properties:                   Instantaneous       Averaged
       Kinetic energy    (eV) =       0.377652          0.441516
       Potential energy  (eV) =      -2.646298         -2.710162
       Total energy      (eV) =      -2.268646         -2.268646
       Temperature       (K)  =      46.375289         54.217687
       Pressure         (GPa) =       0.097596          0.082800
  ** Time :            0.08000 ps :
     Properties:                   Instantaneous       Averaged
       Kinetic energy    (eV) =       0.349342          0.429994
       Potential energy  (eV) =      -2.617988         -2.698640
       Total energy      (eV) =      -2.268646         -2.268646
       Temperature       (K)  =      42.898879         52.802836
       Pressure         (GPa) =       0.104111          0.085464
  ** Time :            0.09000 ps :
     Properties:                   Instantaneous       Averaged
       Kinetic energy    (eV) =       0.320617          0.417841
       Potential energy  (eV) =      -2.589316         -2.686493
       Total energy      (eV) =      -2.268700         -2.268652
       Temperature       (K)  =      39.371413         51.310456
       Pressure         (GPa) =       0.110701          0.088268
  ** Time :            0.10000 ps :
     Properties:                   Instantaneous       Averaged
       Kinetic energy    (eV) =       0.292759          0.405333
       Potential energy  (eV) =      -2.561673         -2.674011
       Total energy      (eV) =      -2.268914         -2.268678
       Temperature       (K)  =      35.950467         49.774457
       Pressure         (GPa) =       0.117066          0.091147
  ** Time :            0.11000 ps :
     Properties:                   Instantaneous       Averaged
       Kinetic energy    (eV) =       0.267090          0.392765
       Potential energy  (eV) =      -2.536327         -2.661494
       Total energy      (eV) =      -2.269236         -2.268729
       Temperature       (K)  =      32.798434         48.231182
       Pressure         (GPa) =       0.122919          0.094036
  ** Time :            0.12000 ps :
     Properties:                   Instantaneous       Averaged
       Kinetic energy    (eV) =       0.244862          0.380440
       Potential energy  (eV) =      -2.514152         -2.649216
       Total energy      (eV) =      -2.269290         -2.268776
       Temperature       (K)  =      30.068807         46.717651
       Pressure         (GPa) =       0.128024          0.096868
  ** Time :            0.13000 ps :
     Properties:                   Instantaneous       Averaged
       Kinetic energy    (eV) =       0.227125          0.368647
       Potential energy  (eV) =      -2.496737         -2.637487
       Total energy      (eV) =      -2.269612         -2.268840
       Temperature       (K)  =      27.890710         45.269425
       Pressure         (GPa) =       0.132096          0.099578
  ** Time :            0.14000 ps :
     Properties:                   Instantaneous       Averaged
       Kinetic energy    (eV) =       0.214614          0.357644
       Potential energy  (eV) =      -2.484387         -2.626551
       Total energy      (eV) =      -2.269773         -2.268907
       Temperature       (K)  =      26.354389         43.918351
       Pressure         (GPa) =       0.135017          0.102109
  ** Time :            0.15000 ps :
     Properties:                   Instantaneous       Averaged
       Kinetic energy    (eV) =       0.207663          0.347645
       Potential energy  (eV) =      -2.477704         -2.616628
       Total energy      (eV) =      -2.270041         -2.268982
       Temperature       (K)  =      25.500795         42.690514
       Pressure         (GPa) =       0.136684          0.104414
  ** Time :            0.16000 ps :
     Properties:                   Instantaneous       Averaged
       Kinetic energy    (eV) =       0.206177          0.338804
       Potential energy  (eV) =      -2.476326         -2.607859
       Total energy      (eV) =      -2.270148         -2.269055
       Temperature       (K)  =      25.318391         41.604756
       Pressure         (GPa) =       0.137139          0.106460
  ** Time :            0.17000 ps :
     Properties:                   Instantaneous       Averaged
       Kinetic energy    (eV) =       0.209670          0.331208
       Potential energy  (eV) =      -2.480086         -2.600343
       Total energy      (eV) =      -2.270416         -2.269135
       Temperature       (K)  =      25.747279         40.671963
       Pressure         (GPa) =       0.136450          0.108224
  ** Time :            0.18000 ps :
     Properties:                   Instantaneous       Averaged
       Kinetic energy    (eV) =       0.217347          0.324882
       Potential energy  (eV) =      -2.487763         -2.594088
       Total energy      (eV) =      -2.270416         -2.269206
       Temperature       (K)  =      26.689962         39.895185
       Pressure         (GPa) =       0.134825          0.109702
  ** Time :            0.19000 ps :
     Properties:                   Instantaneous       Averaged
       Kinetic energy    (eV) =       0.228221          0.319795
       Potential energy  (eV) =      -2.498745         -2.589070
       Total energy      (eV) =      -2.270524         -2.269276
       Temperature       (K)  =      28.025301         39.270455
       Pressure         (GPa) =       0.132436          0.110898
  ** Time :            0.20000 ps :
     Properties:                   Instantaneous       Averaged
       Kinetic energy    (eV) =       0.241238          0.315867
       Potential energy  (eV) =      -2.511815         -2.585208
       Total energy      (eV) =      -2.270577         -2.269341
       Temperature       (K)  =      29.623783         38.788121
       Pressure         (GPa) =       0.129524          0.111829
  ** Time :            0.21000 ps :
     Properties:                   Instantaneous       Averaged
       Kinetic energy    (eV) =       0.255381          0.312986
       Potential energy  (eV) =      -2.526120         -2.582394
       Total energy      (eV) =      -2.270738         -2.269407
       Temperature       (K)  =      31.360589         38.434429
       Pressure         (GPa) =       0.126293          0.112518
  ** Time :            0.22000 ps :
     Properties:                   Instantaneous       Averaged
       Kinetic energy    (eV) =       0.269759          0.311022
       Potential energy  (eV) =      -2.540605         -2.580494
       Total energy      (eV) =      -2.270846         -2.269473
       Temperature       (K)  =      33.126198         38.193146
       Pressure         (GPa) =       0.122955          0.112993
  ** Time :            0.23000 ps :
     Properties:                   Instantaneous       Averaged
       Kinetic energy    (eV) =       0.283658          0.309832
       Potential energy  (eV) =      -2.554611         -2.579369
       Total energy      (eV) =      -2.270953         -2.269537
       Temperature       (K)  =      34.832947         38.047050
       Pressure         (GPa) =       0.119666          0.113283
  ** Time :            0.24000 ps :
     Properties:                   Instantaneous       Averaged
       Kinetic energy    (eV) =       0.296573          0.309279
       Potential energy  (eV) =      -2.567580         -2.578878
       Total energy      (eV) =      -2.271007         -2.269598
       Temperature       (K)  =      36.418930         37.979212
       Pressure         (GPa) =       0.116546          0.113419
  ** Time :            0.25000 ps :
     Properties:                   Instantaneous       Averaged
       Kinetic energy    (eV) =       0.308222          0.309237
       Potential energy  (eV) =      -2.579229         -2.578892
       Total energy      (eV) =      -2.271007         -2.269655
       Temperature       (K)  =      37.849372         37.974018
       Pressure         (GPa) =       0.113663          0.113428
  ** Time :            0.26000 ps :
     Properties:                   Instantaneous       Averaged
       Kinetic energy    (eV) =       0.318534          0.309595
       Potential energy  (eV) =      -2.589648         -2.579306
       Total energy      (eV) =      -2.271114         -2.269711
       Temperature       (K)  =      39.115653         38.017927
       Pressure         (GPa) =       0.111023          0.113336
  ** Time :            0.27000 ps :
     Properties:                   Instantaneous       Averaged
       Kinetic energy    (eV) =       0.327632          0.310263
       Potential energy  (eV) =      -2.599068         -2.580037
       Total energy      (eV) =      -2.271436         -2.269775
       Temperature       (K)  =      40.232887         38.099963
       Pressure         (GPa) =       0.108595          0.113160
  ** Time :            0.28000 ps :
     Properties:                   Instantaneous       Averaged
       Kinetic energy    (eV) =       0.335804          0.311175
       Potential energy  (eV) =      -2.607294         -2.581011
       Total energy      (eV) =      -2.271489         -2.269836
       Temperature       (K)  =      41.236439         38.211980
       Pressure         (GPa) =       0.106371          0.112918
  ** Time :            0.29000 ps :
     Properties:                   Instantaneous       Averaged
       Kinetic energy    (eV) =       0.343464          0.312288
       Potential energy  (eV) =      -2.614953         -2.582181
       Total energy      (eV) =      -2.271489         -2.269893
       Temperature       (K)  =      42.177034         38.348706
       Pressure         (GPa) =       0.104244          0.112619
  ** Time :            0.30000 ps :
     Properties:                   Instantaneous       Averaged
       Kinetic energy    (eV) =       0.351107          0.313582
       Potential energy  (eV) =      -2.622650         -2.583530
       Total energy      (eV) =      -2.271543         -2.269948
       Temperature       (K)  =      43.115628         38.507603
       Pressure         (GPa) =       0.102099          0.112268
  ** Time :            0.31000 ps :
     Properties:                   Instantaneous       Averaged
       Kinetic energy    (eV) =       0.359262          0.315056
       Potential energy  (eV) =      -2.630751         -2.585054
       Total energy      (eV) =      -2.271489         -2.269998
       Temperature       (K)  =      44.117031         38.688553
       Pressure         (GPa) =       0.099838          0.111867
  ** Time :            0.32000 ps :
     Properties:                   Instantaneous       Averaged
       Kinetic energy    (eV) =       0.368443          0.316724
       Potential energy  (eV) =      -2.639986         -2.586770
       Total energy      (eV) =      -2.271543         -2.270046
       Temperature       (K)  =      45.244416         38.893423
       Pressure         (GPa) =       0.097330          0.111413
  ** Time :            0.33000 ps :
     Properties:                   Instantaneous       Averaged
       Kinetic energy    (eV) =       0.379104          0.318615
       Potential energy  (eV) =      -2.650754         -2.588709
       Total energy      (eV) =      -2.271650         -2.270095
       Temperature       (K)  =      46.553608         39.125550
       Pressure         (GPa) =       0.094480          0.110900
  ** Time :            0.34000 ps :
     Properties:                   Instantaneous       Averaged
       Kinetic energy    (eV) =       0.391604          0.320761
       Potential energy  (eV) =      -2.663522         -2.590909
       Total energy      (eV) =      -2.271918         -2.270148
       Temperature       (K)  =      48.088581         39.389169
       Pressure         (GPa) =       0.091199          0.110320
  ** Time :            0.35000 ps :
     Properties:                   Instantaneous       Averaged
       Kinetic energy    (eV) =       0.406168          0.323201
       Potential energy  (eV) =      -2.678140         -2.593402
       Total energy      (eV) =      -2.271972         -2.270200
       Temperature       (K)  =      49.877038         39.688822
       Pressure         (GPa) =       0.087474          0.109667
  ** Time :            0.36000 ps :
     Properties:                   Instantaneous       Averaged
       Kinetic energy    (eV) =       0.422883          0.325970
       Potential energy  (eV) =      -2.695016         -2.596224
       Total energy      (eV) =      -2.272133         -2.270254
       Temperature       (K)  =      51.929552         40.028842
       Pressure         (GPa) =       0.083253          0.108934
  ** Time :            0.37000 ps :
     Properties:                   Instantaneous       Averaged
       Kinetic energy    (eV) =       0.441692          0.329098
       Potential energy  (eV) =      -2.713932         -2.599406
       Total energy      (eV) =      -2.272240         -2.270308
       Temperature       (K)  =      54.239281         40.412908
       Pressure         (GPa) =       0.078563          0.108113
  ** Time :            0.38000 ps :
     Properties:                   Instantaneous       Averaged
       Kinetic energy    (eV) =       0.462408          0.332606
       Potential energy  (eV) =      -2.734755         -2.602968
       Total energy      (eV) =      -2.272348         -2.270361
       Temperature       (K)  =      56.783192         40.843705
       Pressure         (GPa) =       0.073436          0.107200
  ** Time :            0.39000 ps :
     Properties:                   Instantaneous       Averaged
       Kinetic energy    (eV) =       0.484740          0.336507
       Potential energy  (eV) =      -2.757302         -2.606925
       Total energy      (eV) =      -2.272562         -2.270418
       Temperature       (K)  =      59.525596         41.322728
       Pressure         (GPa) =       0.067926          0.106193
  ** Time :            0.40000 ps :
     Properties:                   Instantaneous       Averaged
       Kinetic energy    (eV) =       0.508324          0.340802
       Potential energy  (eV) =      -2.781262         -2.611283
       Total energy      (eV) =      -2.272938         -2.270481
       Temperature       (K)  =      62.421723         41.850203
       Pressure         (GPa) =       0.062108          0.105091
  ** Time :            0.41000 ps :
     Properties:                   Instantaneous       Averaged
       Kinetic energy    (eV) =       0.532747          0.345484
       Potential energy  (eV) =      -2.805846         -2.616029
       Total energy      (eV) =      -2.273099         -2.270545
       Temperature       (K)  =      65.420825         42.425096
       Pressure         (GPa) =       0.056115          0.103897
  ** Time :            0.42000 ps :
     Properties:                   Instantaneous       Averaged
       Kinetic energy    (eV) =       0.557578          0.350534
       Potential energy  (eV) =      -2.830998         -2.621147
       Total energy      (eV) =      -2.273420         -2.270613
       Temperature       (K)  =      68.469993         43.045213
       Pressure         (GPa) =       0.050007          0.102614
  ** Time :            0.43000 ps :
     Properties:                   Instantaneous       Averaged
       Kinetic energy    (eV) =       0.582392          0.355926
       Potential energy  (eV) =      -2.856027         -2.626609
       Total energy      (eV) =      -2.273635         -2.270683
       Temperature       (K)  =      71.517140         43.707351
       Pressure         (GPa) =       0.043911          0.101248
  ** Time :            0.44000 ps :
     Properties:                   Instantaneous       Averaged
       Kinetic energy    (eV) =       0.606785          0.361627
       Potential energy  (eV) =      -2.880581         -2.632381
       Total energy      (eV) =      -2.273796         -2.270754
       Temperature       (K)  =      74.512627         44.407470
       Pressure         (GPa) =       0.037919          0.099809
  ** Time :            0.45000 ps :
     Properties:                   Instantaneous       Averaged
       Kinetic energy    (eV) =       0.630388          0.367600
       Potential energy  (eV) =      -2.904291         -2.638424
       Total energy      (eV) =      -2.273903         -2.270824
       Temperature       (K)  =      77.410994         45.140882
       Pressure         (GPa) =       0.032121          0.098305
  ** Time :            0.46000 ps :
     Properties:                   Instantaneous       Averaged
       Kinetic energy    (eV) =       0.652865          0.373801
       Potential energy  (eV) =      -2.927144         -2.644700
       Total energy      (eV) =      -2.274279         -2.270899
       Temperature       (K)  =      80.171197         45.902411
       Pressure         (GPa) =       0.026568          0.096745
  ** Time :            0.47000 ps :
     Properties:                   Instantaneous       Averaged
       Kinetic energy    (eV) =       0.673919          0.380187
       Potential energy  (eV) =      -2.948197         -2.651158
       Total energy      (eV) =      -2.274279         -2.270971
       Temperature       (K)  =      82.756526         46.686541
       Pressure         (GPa) =       0.021403          0.095142
  ** Time :            0.48000 ps :
     Properties:                   Instantaneous       Averaged
       Kinetic energy    (eV) =       0.693291          0.386710
       Potential energy  (eV) =      -2.967784         -2.657754
       Total energy      (eV) =      -2.274493         -2.271044
       Temperature       (K)  =      85.135391         47.487558
       Pressure         (GPa) =       0.016632          0.093507
  ** Time :            0.49000 ps :
     Properties:                   Instantaneous       Averaged
       Kinetic energy    (eV) =       0.710747          0.393323
       Potential energy  (eV) =      -2.985348         -2.664440
       Total energy      (eV) =      -2.274601         -2.271117
       Temperature       (K)  =      87.279045         48.299630
       Pressure         (GPa) =       0.012350          0.091850
  ** Time :            0.50000 ps :
     Properties:                   Instantaneous       Averaged
       Kinetic energy    (eV) =       0.726095          0.399978
       Potential energy  (eV) =      -3.001124         -2.671173
       Total energy      (eV) =      -2.275030         -2.271195
       Temperature       (K)  =      89.163701         49.116911
       Pressure         (GPa) =       0.008563          0.090185
  ** Time :            0.51000 ps :
     Properties:                   Instantaneous       Averaged
       Kinetic energy    (eV) =       0.739164          0.406629
       Potential energy  (eV) =      -3.014408         -2.677903
       Total energy      (eV) =      -2.275244         -2.271275
       Temperature       (K)  =      90.768548         49.933610
       Pressure         (GPa) =       0.005372          0.088522
  ** Time :            0.52000 ps :
     Properties:                   Instantaneous       Averaged
       Kinetic energy    (eV) =       0.749812          0.413228
       Potential energy  (eV) =      -3.025379         -2.684586
       Total energy      (eV) =      -2.275566         -2.271357
       Temperature       (K)  =      92.076201         50.744044
       Pressure         (GPa) =       0.002783          0.086873
  ** Time :            0.53000 ps :
     Properties:                   Instantaneous       Averaged
       Kinetic energy    (eV) =       0.757925          0.419732
       Potential energy  (eV) =      -3.033545         -2.691170
       Total energy      (eV) =      -2.275620         -2.271438
       Temperature       (K)  =      93.072410         51.542693
       Pressure         (GPa) =       0.000864          0.085250
  ** Time :            0.54000 ps :
     Properties:                   Instantaneous       Averaged
       Kinetic energy    (eV) =       0.763420          0.426097
       Potential energy  (eV) =      -3.039416         -2.697619
       Total energy      (eV) =      -2.275995         -2.271522
       Temperature       (K)  =      93.747275         52.324259
       Pressure         (GPa) =      -0.000425          0.083664
  ** Time :            0.55000 ps :
     Properties:                   Instantaneous       Averaged
       Kinetic energy    (eV) =       0.766253          0.432281
       Potential energy  (eV) =      -3.042624         -2.703892
       Total energy      (eV) =      -2.276371         -2.271610
       Temperature       (K)  =      94.095168         53.083730
       Pressure         (GPa) =      -0.001038          0.082123
  ** Time :            0.56000 ps :
     Properties:                   Instantaneous       Averaged
       Kinetic energy    (eV) =       0.766422          0.438248
       Potential energy  (eV) =      -3.043061         -2.709948
       Total energy      (eV) =      -2.276639         -2.271700
       Temperature       (K)  =      94.115840         53.816446
       Pressure         (GPa) =      -0.000964          0.080640
  ** Time :            0.57000 ps :
     Properties:                   Instantaneous       Averaged
       Kinetic energy    (eV) =       0.763984          0.443963
       Potential energy  (eV) =      -3.040623         -2.715750
       Total energy      (eV) =      -2.276639         -2.271787
       Temperature       (K)  =      93.816422         54.518200
       Pressure         (GPa) =      -0.000199          0.079222
  ** Time :            0.58000 ps :
     Properties:                   Instantaneous       Averaged
       Kinetic energy    (eV) =       0.759057          0.449396
       Potential energy  (eV) =      -3.035803         -2.721268
       Total energy      (eV) =      -2.276747         -2.271872
       Temperature       (K)  =      93.211414         55.185325
       Pressure         (GPa) =       0.001189          0.077876
  ** Time :            0.59000 ps :
     Properties:                   Instantaneous       Averaged
       Kinetic energy    (eV) =       0.751823          0.454521
       Potential energy  (eV) =      -3.028194         -2.726470
       Total energy      (eV) =      -2.276371         -2.271948
       Temperature       (K)  =      92.323131         55.814779
       Pressure         (GPa) =       0.003218          0.076611
  ** Time :            0.60000 ps :
     Properties:                   Instantaneous       Averaged
       Kinetic energy    (eV) =       0.742528          0.459322
       Potential energy  (eV) =      -3.019328         -2.731351
       Total energy      (eV) =      -2.276800         -2.272029
       Temperature       (K)  =      91.181705         56.404228
       Pressure         (GPa) =       0.005699          0.075429
  ** Time :            0.61000 ps :
     Properties:                   Instantaneous       Averaged
       Kinetic energy    (eV) =       0.731445          0.463783
       Potential energy  (eV) =      -3.008138         -2.735888
       Total energy      (eV) =      -2.276693         -2.272106
       Temperature       (K)  =      89.820701         56.952039
       Pressure         (GPa) =       0.008706          0.074335
  ** Time :            0.62000 ps :
     Properties:                   Instantaneous       Averaged
       Kinetic energy    (eV) =       0.718851          0.467897
       Potential energy  (eV) =      -2.995705         -2.740079
       Total energy      (eV) =      -2.276854         -2.272182
       Temperature       (K)  =      88.274230         57.457235
       Pressure         (GPa) =       0.012085          0.073331
  ** Time :            0.63000 ps :
     Properties:                   Instantaneous       Averaged
       Kinetic energy    (eV) =       0.705017          0.471660
       Potential energy  (eV) =      -2.981709         -2.743914
       Total energy      (eV) =      -2.276693         -2.272254
       Temperature       (K)  =      86.575333         57.919428
       Pressure         (GPa) =       0.015831          0.072418
  ** Time :            0.64000 ps :
     Properties:                   Instantaneous       Averaged
       Kinetic energy    (eV) =       0.690194          0.475075
       Potential energy  (eV) =      -2.967155         -2.747402
       Total energy      (eV) =      -2.276961         -2.272328
       Temperature       (K)  =      84.755103         58.338735
       Pressure         (GPa) =       0.019795          0.071596
  ** Time :            0.65000 ps :
     Properties:                   Instantaneous       Averaged
       Kinetic energy    (eV) =       0.674644          0.478145
       Potential energy  (eV) =      -2.951551         -2.750543
       Total energy      (eV) =      -2.276907         -2.272398
       Temperature       (K)  =      82.845590         58.715763
       Pressure         (GPa) =       0.023984          0.070864
  ** Time :            0.66000 ps :
     Properties:                   Instantaneous       Averaged
       Kinetic energy    (eV) =       0.658663          0.480880
       Potential energy  (eV) =      -2.935785         -2.753350
       Total energy      (eV) =      -2.277122         -2.272470
       Temperature       (K)  =      80.883170         59.051633
       Pressure         (GPa) =       0.028253          0.070218
  ** Time :            0.67000 ps :
     Properties:                   Instantaneous       Averaged
       Kinetic energy    (eV) =       0.642629          0.483295
       Potential energy  (eV) =      -2.919859         -2.755835
       Total energy      (eV) =      -2.277229         -2.272541
       Temperature       (K)  =      78.914250         59.348090
       Pressure         (GPa) =       0.032542          0.069656
  ** Time :            0.68000 ps :
     Properties:                   Instantaneous       Averaged
       Kinetic energy    (eV) =       0.627033          0.485408
       Potential energy  (eV) =      -2.904155         -2.758016
       Total energy      (eV) =      -2.277122         -2.272608
       Temperature       (K)  =      76.998977         59.607662
       Pressure         (GPa) =       0.036738          0.069172
  ** Time :            0.69000 ps :
     Properties:                   Instantaneous       Averaged
       Kinetic energy    (eV) =       0.612467          0.487250
       Potential energy  (eV) =      -2.889536         -2.759922
       Total energy      (eV) =      -2.277068         -2.272673
       Temperature       (K)  =      75.210387         59.833789
       Pressure         (GPa) =       0.040671          0.068759
  ** Time :            0.70000 ps :
     Properties:                   Instantaneous       Averaged
       Kinetic energy    (eV) =       0.599604          0.488855
       Potential energy  (eV) =      -2.876404         -2.761586
       Total energy      (eV) =      -2.276800         -2.272732
       Temperature       (K)  =      73.630824         60.030889
       Pressure         (GPa) =       0.044212          0.068408
  ** Time :            0.71000 ps :
     Properties:                   Instantaneous       Averaged
       Kinetic energy    (eV) =       0.589095          0.490267
       Potential energy  (eV) =      -2.866003         -2.763057
       Total energy      (eV) =      -2.276907         -2.272790
       Temperature       (K)  =      72.340323         60.204261
       Pressure         (GPa) =       0.047152          0.068108
  ** Time :            0.72000 ps :
     Properties:                   Instantaneous       Averaged
       Kinetic energy    (eV) =       0.581446          0.491533
       Potential energy  (eV) =      -2.858353         -2.764381
       Total energy      (eV) =      -2.276907         -2.272848
       Temperature       (K)  =      71.400933         60.359771
       Pressure         (GPa) =       0.049428          0.067849
  ** Time :            0.73000 ps :
     Properties:                   Instantaneous       Averaged
       Kinetic energy    (eV) =       0.576899          0.492702
       Potential energy  (eV) =      -2.853592         -2.765603
       Total energy      (eV) =      -2.276693         -2.272900
       Temperature       (K)  =      70.842620         60.503371
       Pressure         (GPa) =       0.050994          0.067618
  ** Time :            0.74000 ps :
     Properties:                   Instantaneous       Averaged
       Kinetic energy    (eV) =       0.575356          0.493819
       Potential energy  (eV) =      -2.852371         -2.766775
       Total energy      (eV) =      -2.277015         -2.272956
       Temperature       (K)  =      70.653126         60.640530
       Pressure         (GPa) =       0.051791          0.067404
  ** Time :            0.75000 ps :
     Properties:                   Instantaneous       Averaged
       Kinetic energy    (eV) =       0.576376          0.494920
       Potential energy  (eV) =      -2.853498         -2.767932
       Total energy      (eV) =      -2.277122         -2.273011
       Temperature       (K)  =      70.778402         60.775702
       Pressure         (GPa) =       0.051986          0.067199
  ** Time :            0.76000 ps :
     Properties:                   Instantaneous       Averaged
       Kinetic energy    (eV) =       0.579267          0.496030
       Potential energy  (eV) =      -2.856282         -2.769094
       Total energy      (eV) =      -2.277015         -2.273064
       Temperature       (K)  =      71.133411         60.911987
       Pressure         (GPa) =       0.051726          0.066995
  ** Time :            0.77000 ps :
     Properties:                   Instantaneous       Averaged
       Kinetic energy    (eV) =       0.583207          0.497162
       Potential energy  (eV) =      -2.860276         -2.770278
       Total energy      (eV) =      -2.277068         -2.273116
       Temperature       (K)  =      71.617298         61.051017
       Pressure         (GPa) =       0.051147          0.066789
  ** Time :            0.78000 ps :
     Properties:                   Instantaneous       Averaged
       Kinetic energy    (eV) =       0.587380          0.498319
       Potential energy  (eV) =      -2.864341         -2.771484
       Total energy      (eV) =      -2.276961         -2.273165
       Temperature       (K)  =      72.129731         61.193052
       Pressure         (GPa) =       0.050456          0.066580
  ** Time :            0.79000 ps :
     Properties:                   Instantaneous       Averaged
       Kinetic energy    (eV) =       0.591107          0.499493
       Potential energy  (eV) =      -2.868336         -2.772710
       Total energy      (eV) =      -2.277229         -2.273217
       Temperature       (K)  =      72.587301         61.337283
       Pressure         (GPa) =       0.049749          0.066367
  ** Time :            0.80000 ps :
     Properties:                   Instantaneous       Averaged
       Kinetic energy    (eV) =       0.593930          0.500674
       Potential energy  (eV) =      -2.871267         -2.773942
       Total energy      (eV) =      -2.277337         -2.273268
       Temperature       (K)  =      72.934011         61.482242
       Pressure         (GPa) =       0.049183          0.066152
  ** Time :            0.81000 ps :
     Properties:                   Instantaneous       Averaged
       Kinetic energy    (eV) =       0.595656          0.501846
       Potential energy  (eV) =      -2.872992         -2.775165
       Total energy      (eV) =      -2.277337         -2.273319
       Temperature       (K)  =      73.145928         61.626238
       Pressure         (GPa) =       0.048803          0.065938
  ** Time :            0.82000 ps :
     Properties:                   Instantaneous       Averaged
       Kinetic energy    (eV) =       0.596325          0.502999
       Potential energy  (eV) =      -2.873823         -2.776368
       Total energy      (eV) =      -2.277498         -2.273369
       Temperature       (K)  =      73.228168         61.767725
       Pressure         (GPa) =       0.048581          0.065726
  ** Time :            0.83000 ps :
     Properties:                   Instantaneous       Averaged
       Kinetic energy    (eV) =       0.596168          0.504121
       Potential energy  (eV) =      -2.873773         -2.777542
       Total energy      (eV) =      -2.277605         -2.273421
       Temperature       (K)  =      73.208848         61.905570
       Pressure         (GPa) =       0.048496          0.065519
  ** Time :            0.84000 ps :
     Properties:                   Instantaneous       Averaged
       Kinetic energy    (eV) =       0.595526          0.505209
       Potential energy  (eV) =      -2.873238         -2.778681
       Total energy      (eV) =      -2.277712         -2.273472
       Temperature       (K)  =      73.129975         62.039194
       Pressure         (GPa) =       0.048479          0.065316
  ** Time :            0.85000 ps :
     Properties:                   Instantaneous       Averaged
       Kinetic energy    (eV) =       0.594776          0.506263
       Potential energy  (eV) =      -2.872435         -2.779784
       Total energy      (eV) =      -2.277658         -2.273521
       Temperature       (K)  =      73.037944         62.168591
       Pressure         (GPa) =       0.048469          0.065118
  ** Time :            0.86000 ps :
     Properties:                   Instantaneous       Averaged
       Kinetic energy    (eV) =       0.594274          0.507286
       Potential energy  (eV) =      -2.871878         -2.780855
       Total energy      (eV) =      -2.277605         -2.273568
       Temperature       (K)  =      72.976215         62.294261
       Pressure         (GPa) =       0.048377          0.064923
  ** Time :            0.87000 ps :
     Properties:                   Instantaneous       Averaged
       Kinetic energy    (eV) =       0.594330          0.508287
       Potential energy  (eV) =      -2.871881         -2.781901
       Total energy      (eV) =      -2.277551         -2.273614
       Temperature       (K)  =      72.983084         62.417121
       Pressure         (GPa) =       0.048142          0.064730
  ** Time :            0.88000 ps :
     Properties:                   Instantaneous       Averaged
       Kinetic energy    (eV) =       0.595195          0.509274
       Potential energy  (eV) =      -2.872531         -2.782931
       Total energy      (eV) =      -2.277337         -2.273656
       Temperature       (K)  =      73.089298         62.538396
       Pressure         (GPa) =       0.047729          0.064537
  ** Time :            0.89000 ps :
     Properties:                   Instantaneous       Averaged
       Kinetic energy    (eV) =       0.597020          0.510260
       Potential energy  (eV) =      -2.874088         -2.783955
       Total energy      (eV) =      -2.277068         -2.273695
       Temperature       (K)  =      73.313403         62.659464
       Pressure         (GPa) =       0.047103          0.064341
  ** Time :            0.90000 ps :
     Properties:                   Instantaneous       Averaged
       Kinetic energy    (eV) =       0.599812          0.511255
       Potential energy  (eV) =      -2.876827         -2.784987
       Total energy      (eV) =      -2.277015         -2.273732
       Temperature       (K)  =      73.656344         62.781651
       Pressure         (GPa) =       0.046242          0.064140
  ** Time :            0.91000 ps :
     Properties:                   Instantaneous       Averaged
       Kinetic energy    (eV) =       0.603375          0.512268
       Potential energy  (eV) =      -2.880337         -2.786035
       Total energy      (eV) =      -2.276961         -2.273767
       Temperature       (K)  =      74.093903         62.905962
       Pressure         (GPa) =       0.045218          0.063932
  ** Time :            0.92000 ps :
     Properties:                   Instantaneous       Averaged
       Kinetic energy    (eV) =       0.607281          0.513300
       Potential energy  (eV) =      -2.884135         -2.787101
       Total energy      (eV) =      -2.276854         -2.273801
       Temperature       (K)  =      74.573475         63.032782
       Pressure         (GPa) =       0.044132          0.063717
  ** Time :            0.93000 ps :
     Properties:                   Instantaneous       Averaged
       Kinetic energy    (eV) =       0.610925          0.514350
       Potential energy  (eV) =      -2.888047         -2.788187
       Total energy      (eV) =      -2.277122         -2.273836
       Temperature       (K)  =      75.020978         63.161688
       Pressure         (GPa) =       0.043072          0.063495
  ** Time :            0.94000 ps :
     Properties:                   Instantaneous       Averaged
       Kinetic energy    (eV) =       0.613620          0.515406
       Potential energy  (eV) =      -2.890796         -2.789278
       Total energy      (eV) =      -2.277176         -2.273872
       Temperature       (K)  =      75.351938         63.291371
       Pressure         (GPa) =       0.042250          0.063269
  ** Time :            0.95000 ps :
     Properties:                   Instantaneous       Averaged
       Kinetic energy    (eV) =       0.614708          0.516451
       Potential energy  (eV) =      -2.892313         -2.790363
       Total energy      (eV) =      -2.277605         -2.273911
       Temperature       (K)  =      75.485539         63.419731
       Pressure         (GPa) =       0.041745          0.063042
  ** Time :            0.96000 ps :
     Properties:                   Instantaneous       Averaged
       Kinetic energy    (eV) =       0.613651          0.517464
       Potential energy  (eV) =      -2.891309         -2.791414
       Total energy      (eV) =      -2.277658         -2.273950
       Temperature       (K)  =      75.355688         63.544064
       Pressure         (GPa) =       0.041754          0.062820
  ** Time :            0.97000 ps :
     Properties:                   Instantaneous       Averaged
       Kinetic energy    (eV) =       0.610068          0.518419
       Potential energy  (eV) =      -2.887404         -2.792404
       Total energy      (eV) =      -2.277337         -2.273985
       Temperature       (K)  =      74.915686         63.661297
       Pressure         (GPa) =       0.042356          0.062609
  ** Time :            0.98000 ps :
     Properties:                   Instantaneous       Averaged
       Kinetic energy    (eV) =       0.603783          0.519290
       Potential energy  (eV) =      -2.881012         -2.793308
       Total energy      (eV) =      -2.277229         -2.274018
       Temperature       (K)  =      74.143967         63.768263
       Pressure         (GPa) =       0.043526          0.062415
  ** Time :            0.99000 ps :
     Properties:                   Instantaneous       Averaged
       Kinetic energy    (eV) =       0.594876          0.520053
       Potential energy  (eV) =      -2.872105         -2.794104
       Total energy      (eV) =      -2.277229         -2.274051
       Temperature       (K)  =      73.050124         63.862019
       Pressure         (GPa) =       0.045253          0.062241
  ** Time :            1.00000 ps :
     Properties:                   Instantaneous       Averaged
       Kinetic energy    (eV) =       0.583780          0.520690
       Potential energy  (eV) =      -2.861063         -2.794774
       Total energy      (eV) =      -2.277283         -2.274083
       Temperature       (K)  =      71.687640         63.940275
       Pressure         (GPa) =       0.047448          0.062093

  Molecular dynamics production :

  ** Time :            0.01000 ps :
     Properties:                   Instantaneous       Averaged
       Kinetic energy    (eV) =       0.571363          0.571363
       Potential energy  (eV) =      -2.848538         -2.848538
       Total energy      (eV) =      -2.277176         -2.277176
       Temperature       (K)  =      70.162771         70.162771
       Pressure         (GPa) =       0.049950          0.049950
  ** Time :            0.02000 ps :
     Properties:                   Instantaneous       Averaged
       Kinetic energy    (eV) =       0.558898          0.565131
       Potential energy  (eV) =      -2.836235         -2.842387
       Total energy      (eV) =      -2.277337         -2.277256
       Temperature       (K)  =      68.632174         69.397472
       Pressure         (GPa) =       0.052449          0.051200
  ** Time :            0.03000 ps :
     Properties:                   Instantaneous       Averaged
       Kinetic energy    (eV) =       0.547925          0.559395
       Potential energy  (eV) =      -2.825369         -2.836714
       Total energy      (eV) =      -2.277444         -2.277319
       Temperature       (K)  =      67.284688         68.693211
       Pressure         (GPa) =       0.054664          0.052355
  ** Time :            0.04000 ps :
     Properties:                   Instantaneous       Averaged
       Kinetic energy    (eV) =       0.539964          0.554538
       Potential energy  (eV) =      -2.817569         -2.831928
       Total energy      (eV) =      -2.277605         -2.277390
       Temperature       (K)  =      66.307095         68.096682
       Pressure         (GPa) =       0.056274          0.053335
  ** Time :            0.05000 ps :
     Properties:                   Instantaneous       Averaged
       Kinetic energy    (eV) =       0.536199          0.550870
       Potential energy  (eV) =      -2.813589         -2.828260
       Total energy      (eV) =      -2.277390         -2.277390
       Temperature       (K)  =      65.844702         67.646286
       Pressure         (GPa) =       0.057083          0.054084
  ** Time :            0.06000 ps :
     Properties:                   Instantaneous       Averaged
       Kinetic energy    (eV) =       0.537252          0.548600
       Potential energy  (eV) =      -2.814428         -2.825955
       Total energy      (eV) =      -2.277176         -2.277354
       Temperature       (K)  =      65.974070         67.367583
       Pressure         (GPa) =       0.056925          0.054558
  ** Time :            0.07000 ps :
     Properties:                   Instantaneous       Averaged
       Kinetic energy    (eV) =       0.543124          0.547818
       Potential energy  (eV) =      -2.820460         -2.825170
       Total energy      (eV) =      -2.277337         -2.277352
       Temperature       (K)  =      66.695044         67.271506
       Pressure         (GPa) =       0.055759          0.054729
  ** Time :            0.08000 ps :
     Properties:                   Instantaneous       Averaged
       Kinetic energy    (eV) =       0.553246          0.548496
       Potential energy  (eV) =      -2.830582         -2.825846
       Total energy      (eV) =      -2.277337         -2.277350
       Temperature       (K)  =      67.938000         67.354818
       Pressure         (GPa) =       0.053756          0.054608
  ** Time :            0.09000 ps :
     Properties:                   Instantaneous       Averaged
       Kinetic energy    (eV) =       0.566638          0.550512
       Potential energy  (eV) =      -2.843814         -2.827843
       Total energy      (eV) =      -2.277176         -2.277331
       Temperature       (K)  =      69.582631         67.602353
       Pressure         (GPa) =       0.051117          0.054220
  ** Time :            0.10000 ps :
     Properties:                   Instantaneous       Averaged
       Kinetic energy    (eV) =       0.582084          0.553669
       Potential energy  (eV) =      -2.859099         -2.830968
       Total energy      (eV) =      -2.277015         -2.277299
       Temperature       (K)  =      71.479336         67.990051
       Pressure         (GPa) =       0.048075          0.053605
  ** Time :            0.11000 ps :
     Properties:                   Instantaneous       Averaged
       Kinetic energy    (eV) =       0.598295          0.557726
       Potential energy  (eV) =      -2.874934         -2.834965
       Total energy      (eV) =      -2.276639         -2.277239
       Temperature       (K)  =      73.470043         68.488232
       Pressure         (GPa) =       0.044919          0.052816
  ** Time :            0.12000 ps :
     Properties:                   Instantaneous       Averaged
       Kinetic energy    (eV) =       0.614054          0.562420
       Potential energy  (eV) =      -2.890640         -2.839605
       Total energy      (eV) =      -2.276586         -2.277185
       Temperature       (K)  =      75.405217         69.064648
       Pressure         (GPa) =       0.041845          0.051901
  ** Time :            0.13000 ps :
     Properties:                   Instantaneous       Averaged
       Kinetic energy    (eV) =       0.628325          0.567490
       Potential energy  (eV) =      -2.905126         -2.844645
       Total energy      (eV) =      -2.276800         -2.277155
       Temperature       (K)  =      77.157743         69.687193
       Pressure         (GPa) =       0.039073          0.050915
  ** Time :            0.14000 ps :
     Properties:                   Instantaneous       Averaged
       Kinetic energy    (eV) =       0.640338          0.572693
       Potential energy  (eV) =      -2.917191         -2.849827
       Total energy      (eV) =      -2.276854         -2.277134
       Temperature       (K)  =      78.632817         70.326167
       Pressure         (GPa) =       0.036808          0.049907
  ** Time :            0.15000 ps :
     Properties:                   Instantaneous       Averaged
       Kinetic energy    (eV) =       0.649647          0.577824
       Potential energy  (eV) =      -2.926447         -2.854935
       Total energy      (eV) =      -2.276800         -2.277111
       Temperature       (K)  =      79.776005         70.956156
       Pressure         (GPa) =       0.035137          0.048922
  ** Time :            0.16000 ps :
     Properties:                   Instantaneous       Averaged
       Kinetic energy    (eV) =       0.656139          0.582718
       Potential energy  (eV) =      -2.933208         -2.859827
       Total energy      (eV) =      -2.277068         -2.277109
       Temperature       (K)  =      80.573236         71.557223
       Pressure         (GPa) =       0.034038          0.047992
  ** Time :            0.17000 ps :
     Properties:                   Instantaneous       Averaged
       Kinetic energy    (eV) =       0.659998          0.587264
       Potential energy  (eV) =      -2.937174         -2.864377
       Total energy      (eV) =      -2.277176         -2.277113
       Temperature       (K)  =      81.047144         72.115454
       Pressure         (GPa) =       0.033523          0.047141
  ** Time :            0.18000 ps :
     Properties:                   Instantaneous       Averaged
       Kinetic energy    (eV) =       0.661633          0.591396
       Potential energy  (eV) =      -2.938809         -2.868512
       Total energy      (eV) =      -2.277176         -2.277116
[...]
       Temperature       (K)  =      73.443810         76.188204
       Pressure         (GPa) =       0.053017          0.045798
  ** Time :            4.57000 ps :
     Properties:                   Instantaneous       Averaged
       Kinetic energy    (eV) =       0.594869          0.620374
       Potential energy  (eV) =      -2.870865         -2.897542
       Total energy      (eV) =      -2.275996         -2.277168
       Temperature       (K)  =      73.049357         76.181336
       Pressure         (GPa) =       0.053842          0.045816
  ** Time :            4.58000 ps :
     Properties:                   Instantaneous       Averaged
       Kinetic energy    (eV) =       0.589390          0.620307
       Potential energy  (eV) =      -2.865385         -2.897472
       Total energy      (eV) =      -2.275996         -2.277165
       Temperature       (K)  =      72.376449         76.173028
       Pressure         (GPa) =       0.055164          0.045836
  ** Time :            4.59000 ps :
     Properties:                   Instantaneous       Averaged
       Kinetic energy    (eV) =       0.581777          0.620223
       Potential energy  (eV) =      -2.857826         -2.897385
       Total energy      (eV) =      -2.276049         -2.277163
       Temperature       (K)  =      71.441622         76.162720
       Pressure         (GPa) =       0.056938          0.045860
  ** Time :            4.60000 ps :
     Properties:                   Instantaneous       Averaged
       Kinetic energy    (eV) =       0.572674          0.620119
       Potential energy  (eV) =      -2.848884         -2.897280
       Total energy      (eV) =      -2.276210         -2.277161
       Temperature       (K)  =      70.323765         76.150027
       Pressure         (GPa) =       0.059013          0.045889
  ** Time :            4.61000 ps :
     Properties:                   Instantaneous       Averaged
       Kinetic energy    (eV) =       0.563115          0.619996
       Potential energy  (eV) =      -2.839272         -2.897154
       Total energy      (eV) =      -2.276157         -2.277158
       Temperature       (K)  =      69.150017         76.134842
       Pressure         (GPa) =       0.061197          0.045922
  ** Time :            4.62000 ps :
     Properties:                   Instantaneous       Averaged
       Kinetic energy    (eV) =       0.554316          0.619853
       Potential energy  (eV) =      -2.830688         -2.897010
       Total energy      (eV) =      -2.276371         -2.277157
       Temperature       (K)  =      68.069508         76.117385
       Pressure         (GPa) =       0.063182          0.045960
  ** Time :            4.63000 ps :
     Properties:                   Instantaneous       Averaged
       Kinetic energy    (eV) =       0.547415          0.619697
       Potential energy  (eV) =      -2.823518         -2.896851
       Total energy      (eV) =      -2.276103         -2.277154
       Temperature       (K)  =      67.221993         76.098172
       Pressure         (GPa) =       0.064802          0.046000
  ** Time :            4.64000 ps :
     Properties:                   Instantaneous       Averaged
       Kinetic energy    (eV) =       0.543238          0.619532
       Potential energy  (eV) =      -2.819126         -2.896684
       Total energy      (eV) =      -2.275889         -2.277152
       Temperature       (K)  =      66.709039         76.077937
       Pressure         (GPa) =       0.065823          0.046043
  ** Time :            4.65000 ps :
     Properties:                   Instantaneous       Averaged
       Kinetic energy    (eV) =       0.542157          0.619366
       Potential energy  (eV) =      -2.817991         -2.896515
       Total energy      (eV) =      -2.275835         -2.277149
       Temperature       (K)  =      66.576281         76.057504
       Pressure         (GPa) =       0.066149          0.046086
  ** Time :            4.66000 ps :
     Properties:                   Instantaneous       Averaged
       Kinetic energy    (eV) =       0.544060          0.619204
       Potential energy  (eV) =      -2.819841         -2.896350
       Total energy      (eV) =      -2.275781         -2.277146
       Temperature       (K)  =      66.809995         76.037659
       Pressure         (GPa) =       0.065815          0.046129
  ** Time :            4.67000 ps :
     Properties:                   Instantaneous       Averaged
       Kinetic energy    (eV) =       0.548394          0.619053
       Potential energy  (eV) =      -2.824175         -2.896196
       Total energy      (eV) =      -2.275781         -2.277143
       Temperature       (K)  =      67.342180         76.019039
       Pressure         (GPa) =       0.064924          0.046169
  ** Time :            4.68000 ps :
     Properties:                   Instantaneous       Averaged
       Kinetic energy    (eV) =       0.554315          0.618914
       Potential energy  (eV) =      -2.829989         -2.896054
       Total energy      (eV) =      -2.275674         -2.277140
       Temperature       (K)  =      68.069361         76.002053
       Pressure         (GPa) =       0.063664          0.046206
  ** Time :            4.69000 ps :
     Properties:                   Instantaneous       Averaged
       Kinetic energy    (eV) =       0.560896          0.618791
       Potential energy  (eV) =      -2.836784         -2.895928
       Total energy      (eV) =      -2.275889         -2.277137
       Temperature       (K)  =      68.877416         75.986862
       Pressure         (GPa) =       0.062186          0.046240
  ** Time :            4.70000 ps :
     Properties:                   Instantaneous       Averaged
       Kinetic energy    (eV) =       0.567338          0.618681
       Potential energy  (eV) =      -2.843173         -2.895816
       Total energy      (eV) =      -2.275835         -2.277135
       Temperature       (K)  =      69.668513         75.973418
       Pressure         (GPa) =       0.060720          0.046271
  ** Time :            4.71000 ps :
     Properties:                   Instantaneous       Averaged
       Kinetic energy    (eV) =       0.573139          0.618584
       Potential energy  (eV) =      -2.848920         -2.895716
       Total energy      (eV) =      -2.275781         -2.277132
       Temperature       (K)  =      70.380872         75.961545
       Pressure         (GPa) =       0.059354          0.046299
  ** Time :            4.72000 ps :
     Properties:                   Instantaneous       Averaged
       Kinetic energy    (eV) =       0.578128          0.618499
       Potential energy  (eV) =      -2.853641         -2.895627
       Total energy      (eV) =      -2.275513         -2.277128
       Temperature       (K)  =      70.993587         75.951019
       Pressure         (GPa) =       0.058161          0.046324
  ** Time :            4.73000 ps :
     Properties:                   Instantaneous       Averaged
       Kinetic energy    (eV) =       0.582329          0.618422
       Potential energy  (eV) =      -2.857896         -2.895547
       Total energy      (eV) =      -2.275567         -2.277125
       Temperature       (K)  =      71.509462         75.941629
       Pressure         (GPa) =       0.057094          0.046347
  ** Time :            4.74000 ps :
     Properties:                   Instantaneous       Averaged
       Kinetic energy    (eV) =       0.585768          0.618353
       Potential energy  (eV) =      -2.861388         -2.895475
       Total energy      (eV) =      -2.275620         -2.277122
       Temperature       (K)  =      71.931684         75.933169
       Pressure         (GPa) =       0.056192          0.046367
  ** Time :            4.75000 ps :
     Properties:                   Instantaneous       Averaged
       Kinetic energy    (eV) =       0.588359          0.618290
       Potential energy  (eV) =      -2.864033         -2.895409
       Total energy      (eV) =      -2.275674         -2.277119
       Temperature       (K)  =      72.249886         75.925415
       Pressure         (GPa) =       0.055475          0.046387
  ** Time :            4.76000 ps :
     Properties:                   Instantaneous       Averaged
       Kinetic energy    (eV) =       0.589949          0.618231
       Potential energy  (eV) =      -2.865730         -2.895346
       Total energy      (eV) =      -2.275781         -2.277116
       Temperature       (K)  =      72.445117         75.918103
       Pressure         (GPa) =       0.054970          0.046405
  ** Time :            4.77000 ps :
     Properties:                   Instantaneous       Averaged
       Kinetic energy    (eV) =       0.590464          0.618172
       Potential energy  (eV) =      -2.866031         -2.895285
       Total energy      (eV) =      -2.275567         -2.277113
       Temperature       (K)  =      72.508448         75.910955
       Pressure         (GPa) =       0.054725          0.046422
  ** Time :            4.78000 ps :
     Properties:                   Instantaneous       Averaged
       Kinetic energy    (eV) =       0.590023          0.618113
       Potential energy  (eV) =      -2.865697         -2.895223
       Total energy      (eV) =      -2.275674         -2.277110
       Temperature       (K)  =      72.454201         75.903724
       Pressure         (GPa) =       0.054646          0.046439
  ** Time :            4.79000 ps :
     Properties:                   Instantaneous       Averaged
       Kinetic energy    (eV) =       0.588927          0.618053
       Potential energy  (eV) =      -2.864815         -2.895160
       Total energy      (eV) =      -2.275889         -2.277107
       Temperature       (K)  =      72.319595         75.896241
       Pressure         (GPa) =       0.054693          0.046457
  ** Time :            4.80000 ps :
     Properties:                   Instantaneous       Averaged
       Kinetic energy    (eV) =       0.587549          0.617989
       Potential energy  (eV) =      -2.863545         -2.895094
       Total energy      (eV) =      -2.275996         -2.277105
       Temperature       (K)  =      72.150481         75.888437
       Pressure         (GPa) =       0.054808          0.046474
  ** Time :            4.81000 ps :
     Properties:                   Instantaneous       Averaged
       Kinetic energy    (eV) =       0.586211          0.617923
       Potential energy  (eV) =      -2.862368         -2.895026
       Total energy      (eV) =      -2.276157         -2.277103
       Temperature       (K)  =      71.986186         75.880325
       Pressure         (GPa) =       0.054907          0.046492
  ** Time :            4.82000 ps :
     Properties:                   Instantaneous       Averaged
       Kinetic energy    (eV) =       0.585106          0.617855
       Potential energy  (eV) =      -2.860941         -2.894955
       Total energy      (eV) =      -2.275835         -2.277100
       Temperature       (K)  =      71.850423         75.871964
       Pressure         (GPa) =       0.054998          0.046509
  ** Time :            4.83000 ps :
     Properties:                   Instantaneous       Averaged
       Kinetic energy    (eV) =       0.584316          0.617785
       Potential energy  (eV) =      -2.860097         -2.894883
       Total energy      (eV) =      -2.275781         -2.277097
       Temperature       (K)  =      71.753448         75.863437
       Pressure         (GPa) =       0.054982          0.046527
  ** Time :            4.84000 ps :
     Properties:                   Instantaneous       Averaged
       Kinetic energy    (eV) =       0.583889          0.617715
       Potential energy  (eV) =      -2.859563         -2.894810
       Total energy      (eV) =      -2.275674         -2.277094
       Temperature       (K)  =      71.701020         75.854837
       Pressure         (GPa) =       0.054873          0.046544
  ** Time :            4.85000 ps :
     Properties:                   Instantaneous       Averaged
       Kinetic energy    (eV) =       0.583973          0.617646
       Potential energy  (eV) =      -2.859647         -2.894737
       Total energy      (eV) =      -2.275674         -2.277092
       Temperature       (K)  =      71.711260         75.846293
       Pressure         (GPa) =       0.054622          0.046561
  ** Time :            4.86000 ps :
     Properties:                   Instantaneous       Averaged
       Kinetic energy    (eV) =       0.584883          0.617578
       Potential energy  (eV) =      -2.860450         -2.894667
       Total energy      (eV) =      -2.275567         -2.277088
       Temperature       (K)  =      71.823045         75.838015
       Pressure         (GPa) =       0.054184          0.046576
  ** Time :            4.87000 ps :
     Properties:                   Instantaneous       Averaged
       Kinetic energy    (eV) =       0.587042          0.617516
       Potential energy  (eV) =      -2.862501         -2.894601
       Total energy      (eV) =      -2.275459         -2.277085
       Temperature       (K)  =      72.088119         75.830315
       Pressure         (GPa) =       0.053467          0.046590
  ** Time :            4.88000 ps :
     Properties:                   Instantaneous       Averaged
       Kinetic energy    (eV) =       0.590746          0.617461
       Potential energy  (eV) =      -2.865991         -2.894542
       Total energy      (eV) =      -2.275245         -2.277081
       Temperature       (K)  =      72.542997         75.823579
       Pressure         (GPa) =       0.052424          0.046602
  ** Time :            4.89000 ps :
     Properties:                   Instantaneous       Averaged
       Kinetic energy    (eV) =       0.595948          0.617417
       Potential energy  (eV) =      -2.871569         -2.894495
       Total energy      (eV) =      -2.275620         -2.277078
       Temperature       (K)  =      73.181865         75.818177
       Pressure         (GPa) =       0.050993          0.046611
  ** Time :            4.90000 ps :
     Properties:                   Instantaneous       Averaged
       Kinetic energy    (eV) =       0.602235          0.617386
       Potential energy  (eV) =      -2.877909         -2.894461
       Total energy      (eV) =      -2.275674         -2.277075
       Temperature       (K)  =      73.953910         75.814372
       Pressure         (GPa) =       0.049350          0.046617
  ** Time :            4.91000 ps :
     Properties:                   Instantaneous       Averaged
       Kinetic energy    (eV) =       0.609048          0.617369
       Potential energy  (eV) =      -2.884829         -2.894442
       Total energy      (eV) =      -2.275781         -2.277073
       Temperature       (K)  =      74.790430         75.812287
       Pressure         (GPa) =       0.047569          0.046619
  ** Time :            4.92000 ps :
     Properties:                   Instantaneous       Averaged
       Kinetic energy    (eV) =       0.615955          0.617366
       Potential energy  (eV) =      -2.891683         -2.894436
       Total energy      (eV) =      -2.275728         -2.277070
       Temperature       (K)  =      75.638706         75.811934
       Pressure         (GPa) =       0.045758          0.046617
  ** Time :            4.93000 ps :
     Properties:                   Instantaneous       Averaged
       Kinetic energy    (eV) =       0.622810          0.617377
       Potential energy  (eV) =      -2.898323         -2.894444
       Total energy      (eV) =      -2.275513         -2.277067
       Temperature       (K)  =      76.480480         75.813290
       Pressure         (GPa) =       0.043956          0.046612
  ** Time :            4.94000 ps :
     Properties:                   Instantaneous       Averaged
       Kinetic energy    (eV) =       0.629680          0.617402
       Potential energy  (eV) =      -2.905407         -2.894466
       Total energy      (eV) =      -2.275728         -2.277064
       Temperature       (K)  =      77.324074         75.816348
       Pressure         (GPa) =       0.042098          0.046603
  ** Time :            4.95000 ps :
     Properties:                   Instantaneous       Averaged
       Kinetic energy    (eV) =       0.636695          0.617441
       Potential energy  (eV) =      -2.912529         -2.894503
       Total energy      (eV) =      -2.275835         -2.277062
       Temperature       (K)  =      78.185471         75.821134
       Pressure         (GPa) =       0.040222          0.046590
  ** Time :            4.96000 ps :
     Properties:                   Instantaneous       Averaged
       Kinetic energy    (eV) =       0.643903          0.617494
       Potential energy  (eV) =      -2.919792         -2.894554
       Total energy      (eV) =      -2.275888         -2.277059
       Temperature       (K)  =      79.070662         75.827686
       Pressure         (GPa) =       0.038324          0.046573
  ** Time :            4.97000 ps :
     Properties:                   Instantaneous       Averaged
       Kinetic energy    (eV) =       0.651210          0.617562
       Potential energy  (eV) =      -2.926884         -2.894619
       Total energy      (eV) =      -2.275674         -2.277057
       Temperature       (K)  =      79.967911         75.836016
       Pressure         (GPa) =       0.036451          0.046553
  ** Time :            4.98000 ps :
     Properties:                   Instantaneous       Averaged
       Kinetic energy    (eV) =       0.658400          0.617644
       Potential energy  (eV) =      -2.934181         -2.894698
       Total energy      (eV) =      -2.275781         -2.277054
       Temperature       (K)  =      80.850881         75.846086
       Pressure         (GPa) =       0.034594          0.046529
  ** Time :            4.99000 ps :
     Properties:                   Instantaneous       Averaged
       Kinetic energy    (eV) =       0.665184          0.617739
       Potential energy  (eV) =      -2.940858         -2.894791
       Total energy      (eV) =      -2.275674         -2.277051
       Temperature       (K)  =      81.683949         75.857785
       Pressure         (GPa) =       0.032872          0.046501
  ** Time :            5.00000 ps :
     Properties:                   Instantaneous       Averaged
       Kinetic energy    (eV) =       0.671263          0.617846
       Potential energy  (eV) =      -2.946829         -2.894895
       Total energy      (eV) =      -2.275567         -2.277048
       Temperature       (K)  =      82.430405         75.870930
       Pressure         (GPa) =       0.031328          0.046471

  Peak dynamic memory used =       2.00 MB 


  Timing analysis for GULP :

--------------------------------------------------------------------------------
  Task / Subroutine                                          Time (Seconds)
--------------------------------------------------------------------------------
  Calculation of real space energy and derivatives               80.2844
  Calculation of matrix inversion                                 0.0574
  Molecular dynamics - update of geometry                         0.3602
  Molecular dynamics - predictor                                  0.0808
  Molecular dynamics - corrector                                  0.0889
  Molecular dynamics - velocity correction                        0.0693
--------------------------------------------------------------------------------
  Total CPU time                                                 81.5494
--------------------------------------------------------------------------------


  GULP trajectory file written as Ar_rho_0.0207125_N=64_cubic_60_TS=01.trg


  Job Finished at 12:44.19  2nd August     2022                               

