********************************************************************************
*                       GENERAL UTILITY LATTICE PROGRAM                        *
*                                 Julian Gale                                  *
*                       Curtin Institute for Computation                       *
*                    School of Molecular and Life Sciences                     *
*                    Curtin University, Western Australia                      *
********************************************************************************
* Version = 6.1.0 * Last modified =   8th July 2022                            *
********************************************************************************
*  single       - perform a single point run                                   *
*  md           - perform molecular dynamics run                               *
*  conv         - constant volume calculation                                  *
*  qok          - running with non charge neutral cell is OK                   *
*  preserve_Q   - preserve coordinate line charges over species input          *
*  potential    - calculate electrostatic site potentials                      *
*  efg          - calculate electrostatic electric field gradient              *
*  nomodcoord   - do not mod input coordinates                                 *
*  molmec       - molecule option activated, Coulomb subtract 1-2/1-3 terms    *
*  noautobond   - do not compute bonds based on covalent radii                 *
********************************************************************************
* GULP calculation from Materials Studio for Ar_rho=0.0207125_N=64_cubic_60    *
* Dinamica molecular de Ar en el punto triple                                  *
********************************************************************************


  Job Started  at 16:36.51 30th July       2022                               

  Number of CPUs =     1


  Total number of configurations input =      1

********************************************************************************
*  Input for Configuration =   1                                               *
********************************************************************************

  Formula = Ar64                                                        

  Number of irreducible atoms/shells =      64


  Total number atoms/shells =      64

  Dimensionality = 3               :  Bulk   



  Cartesian lattice vectors (Angstroms) :

       14.565000    0.000000    0.000000
        0.000000   14.565000    0.000000
        0.000000    0.000000   14.565000

  Cell parameters (Angstroms/Degrees):

  a =      14.5650    alpha =  90.0000
  b =      14.5650    beta  =  90.0000
  c =      14.5650    gamma =  90.0000

  Initial cell volume =        3089.807812 Angs**3

  Temperature of configuration =   83.8     K 

  Pressure of configuration =         0.000 GPa 

  Fractional coordinates of asymmetric unit :

--------------------------------------------------------------------------------
   No.  Atomic       x           y          z         Charge      Occupancy
        Label      (Frac)      (Frac)     (Frac)        (e)         (Frac)  
--------------------------------------------------------------------------------
      1 Ar1   c    0.000000 *  0.000000 *  0.000000 *   0.00000    1.000000    
      2 Ar1   c    0.000000 *  0.000000 *  0.249983 *   0.00000    1.000000    
      3 Ar1   c    0.000000 *  0.000000 *  0.500034 *   0.00000    1.000000    
      4 Ar1   c    0.000000 *  0.000000 *  0.750017 *   0.00000    1.000000    
      5 Ar1   c    0.000000 *  0.249983 *  0.000000 *   0.00000    1.000000    
      6 Ar1   c    0.000000 *  0.249983 *  0.249983 *   0.00000    1.000000    
      7 Ar1   c    0.000000 *  0.249983 *  0.500034 *   0.00000    1.000000    
      8 Ar1   c    0.000000 *  0.249983 *  0.750017 *   0.00000    1.000000    
      9 Ar1   c    0.000000 *  0.500034 *  0.000000 *   0.00000    1.000000    
     10 Ar1   c    0.000000 *  0.500034 *  0.249983 *   0.00000    1.000000    
     11 Ar1   c    0.000000 *  0.500034 *  0.500034 *   0.00000    1.000000    
     12 Ar1   c    0.000000 *  0.500034 *  0.750017 *   0.00000    1.000000    
     13 Ar1   c    0.000000 *  0.750017 *  0.000000 *   0.00000    1.000000    
     14 Ar1   c    0.000000 *  0.750017 *  0.249983 *   0.00000    1.000000    
     15 Ar1   c    0.000000 *  0.750017 *  0.500034 *   0.00000    1.000000    
     16 Ar1   c    0.000000 *  0.750017 *  0.750017 *   0.00000    1.000000    
     17 Ar1   c    0.249983 *  0.000000 *  0.000000 *   0.00000    1.000000    
     18 Ar1   c    0.249983 *  0.000000 *  0.249983 *   0.00000    1.000000    
     19 Ar1   c    0.249983 *  0.000000 *  0.500034 *   0.00000    1.000000    
     20 Ar1   c    0.249983 *  0.000000 *  0.750017 *   0.00000    1.000000    
     21 Ar1   c    0.249983 *  0.249983 *  0.000000 *   0.00000    1.000000    
     22 Ar1   c    0.249983 *  0.249983 *  0.249983 *   0.00000    1.000000    
     23 Ar1   c    0.249983 *  0.249983 *  0.500034 *   0.00000    1.000000    
     24 Ar1   c    0.249983 *  0.249983 *  0.750017 *   0.00000    1.000000    
     25 Ar1   c    0.249983 *  0.500034 *  0.000000 *   0.00000    1.000000    
     26 Ar1   c    0.249983 *  0.500034 *  0.249983 *   0.00000    1.000000    
     27 Ar1   c    0.249983 *  0.500034 *  0.500034 *   0.00000    1.000000    
     28 Ar1   c    0.249983 *  0.500034 *  0.750017 *   0.00000    1.000000    
     29 Ar1   c    0.249983 *  0.750017 *  0.000000 *   0.00000    1.000000    
     30 Ar1   c    0.249983 *  0.750017 *  0.249983 *   0.00000    1.000000    
     31 Ar1   c    0.249983 *  0.750017 *  0.500034 *   0.00000    1.000000    
     32 Ar1   c    0.249983 *  0.750017 *  0.750017 *   0.00000    1.000000    
     33 Ar1   c    0.500034 *  0.000000 *  0.000000 *   0.00000    1.000000    
     34 Ar1   c    0.500034 *  0.000000 *  0.249983 *   0.00000    1.000000    
     35 Ar1   c    0.500034 *  0.000000 *  0.500034 *   0.00000    1.000000    
     36 Ar1   c    0.500034 *  0.000000 *  0.750017 *   0.00000    1.000000    
     37 Ar1   c    0.500034 *  0.249983 *  0.000000 *   0.00000    1.000000    
     38 Ar1   c    0.500034 *  0.249983 *  0.249983 *   0.00000    1.000000    
     39 Ar1   c    0.500034 *  0.249983 *  0.500034 *   0.00000    1.000000    
     40 Ar1   c    0.500034 *  0.249983 *  0.750017 *   0.00000    1.000000    
     41 Ar1   c    0.500034 *  0.500034 *  0.000000 *   0.00000    1.000000    
     42 Ar1   c    0.500034 *  0.500034 *  0.249983 *   0.00000    1.000000    
     43 Ar1   c    0.500034 *  0.500034 *  0.500034 *   0.00000    1.000000    
     44 Ar1   c    0.500034 *  0.500034 *  0.750017 *   0.00000    1.000000    
     45 Ar1   c    0.500034 *  0.750017 *  0.000000 *   0.00000    1.000000    
     46 Ar1   c    0.500034 *  0.750017 *  0.249983 *   0.00000    1.000000    
     47 Ar1   c    0.500034 *  0.750017 *  0.500034 *   0.00000    1.000000    
     48 Ar1   c    0.500034 *  0.750017 *  0.750017 *   0.00000    1.000000    
     49 Ar1   c    0.750017 *  0.000000 *  0.000000 *   0.00000    1.000000    
     50 Ar1   c    0.750017 *  0.000000 *  0.249983 *   0.00000    1.000000    
     51 Ar1   c    0.750017 *  0.000000 *  0.500034 *   0.00000    1.000000    
     52 Ar1   c    0.750017 *  0.000000 *  0.750017 *   0.00000    1.000000    
     53 Ar1   c    0.750017 *  0.249983 *  0.000000 *   0.00000    1.000000    
     54 Ar1   c    0.750017 *  0.249983 *  0.249983 *   0.00000    1.000000    
     55 Ar1   c    0.750017 *  0.249983 *  0.500034 *   0.00000    1.000000    
     56 Ar1   c    0.750017 *  0.249983 *  0.750017 *   0.00000    1.000000    
     57 Ar1   c    0.750017 *  0.500034 *  0.000000 *   0.00000    1.000000    
     58 Ar1   c    0.750017 *  0.500034 *  0.249983 *   0.00000    1.000000    
     59 Ar1   c    0.750017 *  0.500034 *  0.500034 *   0.00000    1.000000    
     60 Ar1   c    0.750017 *  0.500034 *  0.750017 *   0.00000    1.000000    
     61 Ar1   c    0.750017 *  0.750017 *  0.000000 *   0.00000    1.000000    
     62 Ar1   c    0.750017 *  0.750017 *  0.249983 *   0.00000    1.000000    
     63 Ar1   c    0.750017 *  0.750017 *  0.500034 *   0.00000    1.000000    
     64 Ar1   c    0.750017 *  0.750017 *  0.750017 *   0.00000    1.000000    
--------------------------------------------------------------------------------



  Molecule list generated from bond lengths :

  Total number of molecules =     0


********************************************************************************
*  General input information                                                   *
********************************************************************************

  Species output for all configurations : 

--------------------------------------------------------------------------------
  Species    Type    Atomic    Atomic    Charge       Radii (Angs)     Library
                     Number     Mass       (e)     Cova   Ionic  VDW   Symbol
--------------------------------------------------------------------------------
    Ar1      Core       18      39.95   0.000000   0.000  0.000  0.000 Ar4+4    
--------------------------------------------------------------------------------


  Universal Force Field (UFF) species output: 

--------------------------------------------------------------------------------
  Species    Type    Radius    Theta    Distance    Energy     Zeta     Zeff    
                     (Ang)   (degrees)   (Ang)       (eV)               (e)     
--------------------------------------------------------------------------------
    Ar1      Core    1.0320    90.000     3.8680    0.0080   15.7630   0.2994
--------------------------------------------------------------------------------


  Lattice summation method               =    Ewald          (3-D)
                                         =    Parry          (2-D)
                                         =    Saunders et al (1-D)
  Accuracy factor for lattice sums       =   12.000


  Analytic derivatives to be used

  Time limit = Infinity

  Maximum range for interatomic potentials =    100000.000000 Angstroms

  General interatomic potentials :

--------------------------------------------------------------------------------
Atom  Types   Potential      Parameter       Value         Units   Cutoffs(Ang)
  1     2                                                            Min /  Max 
--------------------------------------------------------------------------------
Ar1  c Ar1  c Lennard       Lennard-Jones A  89979.376    eV*Ang^m  3Bond 10.000
                            Lennard-Jones B  53.734620    eV*Ang^n  
                            Exponent m        12          None
                            Exponent n         6          None
--------------------------------------------------------------------------------

  Intramolecular potentials :

--------------------------------------------------------------------------------
Atom  Types   Potential      Parameter       Value         Units   Cutoffs(Ang)
  1     2                                                            Min /  Max 
--------------------------------------------------------------------------------
Ar1  c Ar1  c Harmonic      Harmonic k2     0.29359911    eV*Ang^-2 0.000 1 Bond
                            Harmonic r0      2.0640000    Ang       
                            Harmonic k3      0.0000000    eV*Ang^-3 
                            Harmonic k4      0.0000000    eV*Ang^-4 
                                                                    single   cyc
--------------------------------------------------------------------------------

  Intramolecular Three-body potentials :

--------------------------------------------------------------------------------
  Atoms       Potential      Parameter       Value         Units   Cutoffs(Ang)
  1 / 2 / 3                                                          Min /  Max 
--------------------------------------------------------------------------------
Ar1   core    Linear 3-body Three-body cnst 0.97315276E-02eV        0.000 1 Bond
Ar1   core                  Three-body sign -1.0000000    None      0.000 1 Bond
Ar1   core                                                          0.000
--------------------------------------------------------------------------------

********************************************************************************
*  Output for configuration   1                                                *
********************************************************************************


  Components of enthalpy : 

--------------------------------------------------------------------------------
  Interatomic potentials     =          -2.75724948 eV    
  Three-body potentials      =           0.00000000 eV    
  Monopole - monopole (real) =           0.00000000 eV    
  Monopole - monopole (recip)=           0.00000000 eV    
  Monopole - monopole (total)=           0.00000000 eV    
  Pressure*volume            =           0.00132854 eV    
--------------------------------------------------------------------------------
  Total lattice enthalpy     =          -2.75592094 eV    
--------------------------------------------------------------------------------
  Total lattice enthalpy     =            -265.9042 kJ/(mole unit cells)
--------------------------------------------------------------------------------

  MSI Archive (version 3) open for Movie as Ar_rho_0.0207125_N=64_cubic_TP_3D.arc



  Electrostatic potential at atomic positions :

-------------------------------------------------------------------------------
 Site  Atomic      Potential                Derivatives (V/Angs)
 No.   Label          (V)                 x           y           z
-------------------------------------------------------------------------------
     1 Ar1   c      0.000000           0.000000    0.000000    0.000000
     2 Ar1   c      0.000000           0.000000    0.000000    0.000000
     3 Ar1   c      0.000000           0.000000    0.000000    0.000000
     4 Ar1   c      0.000000           0.000000    0.000000    0.000000
     5 Ar1   c      0.000000           0.000000    0.000000    0.000000
     6 Ar1   c      0.000000           0.000000    0.000000    0.000000
     7 Ar1   c      0.000000           0.000000    0.000000    0.000000
     8 Ar1   c      0.000000           0.000000    0.000000    0.000000
     9 Ar1   c      0.000000           0.000000    0.000000    0.000000
    10 Ar1   c      0.000000           0.000000    0.000000    0.000000
    11 Ar1   c      0.000000           0.000000    0.000000    0.000000
    12 Ar1   c      0.000000           0.000000    0.000000    0.000000
    13 Ar1   c      0.000000           0.000000    0.000000    0.000000
    14 Ar1   c      0.000000           0.000000    0.000000    0.000000
    15 Ar1   c      0.000000           0.000000    0.000000    0.000000
    16 Ar1   c      0.000000           0.000000    0.000000    0.000000
    17 Ar1   c      0.000000           0.000000    0.000000    0.000000
    18 Ar1   c      0.000000           0.000000    0.000000    0.000000
    19 Ar1   c      0.000000           0.000000    0.000000    0.000000
    20 Ar1   c      0.000000           0.000000    0.000000    0.000000
    21 Ar1   c      0.000000           0.000000    0.000000    0.000000
    22 Ar1   c      0.000000           0.000000    0.000000    0.000000
    23 Ar1   c      0.000000           0.000000    0.000000    0.000000
    24 Ar1   c      0.000000           0.000000    0.000000    0.000000
    25 Ar1   c      0.000000           0.000000    0.000000    0.000000
    26 Ar1   c      0.000000           0.000000    0.000000    0.000000
    27 Ar1   c      0.000000           0.000000    0.000000    0.000000
    28 Ar1   c      0.000000           0.000000    0.000000    0.000000
    29 Ar1   c      0.000000           0.000000    0.000000    0.000000
    30 Ar1   c      0.000000           0.000000    0.000000    0.000000
    31 Ar1   c      0.000000           0.000000    0.000000    0.000000
    32 Ar1   c      0.000000           0.000000    0.000000    0.000000
    33 Ar1   c      0.000000           0.000000    0.000000    0.000000
    34 Ar1   c      0.000000           0.000000    0.000000    0.000000
    35 Ar1   c      0.000000           0.000000    0.000000    0.000000
    36 Ar1   c      0.000000           0.000000    0.000000    0.000000
    37 Ar1   c      0.000000           0.000000    0.000000    0.000000
    38 Ar1   c      0.000000           0.000000    0.000000    0.000000
    39 Ar1   c      0.000000           0.000000    0.000000    0.000000
    40 Ar1   c      0.000000           0.000000    0.000000    0.000000
    41 Ar1   c      0.000000           0.000000    0.000000    0.000000
    42 Ar1   c      0.000000           0.000000    0.000000    0.000000
    43 Ar1   c      0.000000           0.000000    0.000000    0.000000
    44 Ar1   c      0.000000           0.000000    0.000000    0.000000
    45 Ar1   c      0.000000           0.000000    0.000000    0.000000
    46 Ar1   c      0.000000           0.000000    0.000000    0.000000
    47 Ar1   c      0.000000           0.000000    0.000000    0.000000
    48 Ar1   c      0.000000           0.000000    0.000000    0.000000
    49 Ar1   c      0.000000           0.000000    0.000000    0.000000
    50 Ar1   c      0.000000           0.000000    0.000000    0.000000
    51 Ar1   c      0.000000           0.000000    0.000000    0.000000
    52 Ar1   c      0.000000           0.000000    0.000000    0.000000
    53 Ar1   c      0.000000           0.000000    0.000000    0.000000
    54 Ar1   c      0.000000           0.000000    0.000000    0.000000
    55 Ar1   c      0.000000           0.000000    0.000000    0.000000
    56 Ar1   c      0.000000           0.000000    0.000000    0.000000
    57 Ar1   c      0.000000           0.000000    0.000000    0.000000
    58 Ar1   c      0.000000           0.000000    0.000000    0.000000
    59 Ar1   c      0.000000           0.000000    0.000000    0.000000
    60 Ar1   c      0.000000           0.000000    0.000000    0.000000
    61 Ar1   c      0.000000           0.000000    0.000000    0.000000
    62 Ar1   c      0.000000           0.000000    0.000000    0.000000
    63 Ar1   c      0.000000           0.000000    0.000000    0.000000
    64 Ar1   c      0.000000           0.000000    0.000000    0.000000
-------------------------------------------------------------------------------


  Electric Field Gradients at atomic positions :

-------------------------------------------------------------------------------
   Site no.                      EFGs (V/Angs**2)
                xx        xy        yy        xz        yz        zz
-------------------------------------------------------------------------------
        1      0.0000    0.0000    0.0000    0.0000    0.0000    0.0000
        2      0.0000    0.0000    0.0000    0.0000    0.0000    0.0000
        3      0.0000    0.0000    0.0000    0.0000    0.0000    0.0000
        4      0.0000    0.0000    0.0000    0.0000    0.0000    0.0000
        5      0.0000    0.0000    0.0000    0.0000    0.0000    0.0000
        6      0.0000    0.0000    0.0000    0.0000    0.0000    0.0000
        7      0.0000    0.0000    0.0000    0.0000    0.0000    0.0000
        8      0.0000    0.0000    0.0000    0.0000    0.0000    0.0000
        9      0.0000    0.0000    0.0000    0.0000    0.0000    0.0000
       10      0.0000    0.0000    0.0000    0.0000    0.0000    0.0000
       11      0.0000    0.0000    0.0000    0.0000    0.0000    0.0000
       12      0.0000    0.0000    0.0000    0.0000    0.0000    0.0000
       13      0.0000    0.0000    0.0000    0.0000    0.0000    0.0000
       14      0.0000    0.0000    0.0000    0.0000    0.0000    0.0000
       15      0.0000    0.0000    0.0000    0.0000    0.0000    0.0000
       16      0.0000    0.0000    0.0000    0.0000    0.0000    0.0000
       17      0.0000    0.0000    0.0000    0.0000    0.0000    0.0000
       18      0.0000    0.0000    0.0000    0.0000    0.0000    0.0000
       19      0.0000    0.0000    0.0000    0.0000    0.0000    0.0000
       20      0.0000    0.0000    0.0000    0.0000    0.0000    0.0000
       21      0.0000    0.0000    0.0000    0.0000    0.0000    0.0000
       22      0.0000    0.0000    0.0000    0.0000    0.0000    0.0000
       23      0.0000    0.0000    0.0000    0.0000    0.0000    0.0000
       24      0.0000    0.0000    0.0000    0.0000    0.0000    0.0000
       25      0.0000    0.0000    0.0000    0.0000    0.0000    0.0000
       26      0.0000    0.0000    0.0000    0.0000    0.0000    0.0000
       27      0.0000    0.0000    0.0000    0.0000    0.0000    0.0000
       28      0.0000    0.0000    0.0000    0.0000    0.0000    0.0000
       29      0.0000    0.0000    0.0000    0.0000    0.0000    0.0000
       30      0.0000    0.0000    0.0000    0.0000    0.0000    0.0000
       31      0.0000    0.0000    0.0000    0.0000    0.0000    0.0000
       32      0.0000    0.0000    0.0000    0.0000    0.0000    0.0000
       33      0.0000    0.0000    0.0000    0.0000    0.0000    0.0000
       34      0.0000    0.0000    0.0000    0.0000    0.0000    0.0000
       35      0.0000    0.0000    0.0000    0.0000    0.0000    0.0000
       36      0.0000    0.0000    0.0000    0.0000    0.0000    0.0000
       37      0.0000    0.0000    0.0000    0.0000    0.0000    0.0000
       38      0.0000    0.0000    0.0000    0.0000    0.0000    0.0000
       39      0.0000    0.0000    0.0000    0.0000    0.0000    0.0000
       40      0.0000    0.0000    0.0000    0.0000    0.0000    0.0000
       41      0.0000    0.0000    0.0000    0.0000    0.0000    0.0000
       42      0.0000    0.0000    0.0000    0.0000    0.0000    0.0000
       43      0.0000    0.0000    0.0000    0.0000    0.0000    0.0000
       44      0.0000    0.0000    0.0000    0.0000    0.0000    0.0000
       45      0.0000    0.0000    0.0000    0.0000    0.0000    0.0000
       46      0.0000    0.0000    0.0000    0.0000    0.0000    0.0000
       47      0.0000    0.0000    0.0000    0.0000    0.0000    0.0000
       48      0.0000    0.0000    0.0000    0.0000    0.0000    0.0000
       49      0.0000    0.0000    0.0000    0.0000    0.0000    0.0000
       50      0.0000    0.0000    0.0000    0.0000    0.0000    0.0000
       51      0.0000    0.0000    0.0000    0.0000    0.0000    0.0000
       52      0.0000    0.0000    0.0000    0.0000    0.0000    0.0000
       53      0.0000    0.0000    0.0000    0.0000    0.0000    0.0000
       54      0.0000    0.0000    0.0000    0.0000    0.0000    0.0000
       55      0.0000    0.0000    0.0000    0.0000    0.0000    0.0000
       56      0.0000    0.0000    0.0000    0.0000    0.0000    0.0000
       57      0.0000    0.0000    0.0000    0.0000    0.0000    0.0000
       58      0.0000    0.0000    0.0000    0.0000    0.0000    0.0000
       59      0.0000    0.0000    0.0000    0.0000    0.0000    0.0000
       60      0.0000    0.0000    0.0000    0.0000    0.0000    0.0000
       61      0.0000    0.0000    0.0000    0.0000    0.0000    0.0000
       62      0.0000    0.0000    0.0000    0.0000    0.0000    0.0000
       63      0.0000    0.0000    0.0000    0.0000    0.0000    0.0000
       64      0.0000    0.0000    0.0000    0.0000    0.0000    0.0000
-------------------------------------------------------------------------------


  EFG Tensor properties :

-------------------------------------------------------------------------------
   Site no.    Diagonalised EFGs (V/Angs**2)          eVzz/h        Asymmetry
                 xx        yy        zz             (MHz/barn)      Parameter
-------------------------------------------------------------------------------
        1       0.0000    0.0000    0.0000             0.0000        0.0000
        2       0.0000    0.0000    0.0000             0.0000        0.0000
        3       0.0000    0.0000    0.0000             0.0000        0.0000
        4       0.0000    0.0000    0.0000             0.0000        0.0000
        5       0.0000    0.0000    0.0000             0.0000        0.0000
        6       0.0000    0.0000    0.0000             0.0000        0.0000
        7       0.0000    0.0000    0.0000             0.0000        0.0000
        8       0.0000    0.0000    0.0000             0.0000        0.0000
        9       0.0000    0.0000    0.0000             0.0000        0.0000
       10       0.0000    0.0000    0.0000             0.0000        0.0000
       11       0.0000    0.0000    0.0000             0.0000        0.0000
       12       0.0000    0.0000    0.0000             0.0000        0.0000
       13       0.0000    0.0000    0.0000             0.0000        0.0000
       14       0.0000    0.0000    0.0000             0.0000        0.0000
       15       0.0000    0.0000    0.0000             0.0000        0.0000
       16       0.0000    0.0000    0.0000             0.0000        0.0000
       17       0.0000    0.0000    0.0000             0.0000        0.0000
       18       0.0000    0.0000    0.0000             0.0000        0.0000
       19       0.0000    0.0000    0.0000             0.0000        0.0000
       20       0.0000    0.0000    0.0000             0.0000        0.0000
       21       0.0000    0.0000    0.0000             0.0000        0.0000
       22       0.0000    0.0000    0.0000             0.0000        0.0000
       23       0.0000    0.0000    0.0000             0.0000        0.0000
       24       0.0000    0.0000    0.0000             0.0000        0.0000
       25       0.0000    0.0000    0.0000             0.0000        0.0000
       26       0.0000    0.0000    0.0000             0.0000        0.0000
       27       0.0000    0.0000    0.0000             0.0000        0.0000
       28       0.0000    0.0000    0.0000             0.0000        0.0000
       29       0.0000    0.0000    0.0000             0.0000        0.0000
       30       0.0000    0.0000    0.0000             0.0000        0.0000
       31       0.0000    0.0000    0.0000             0.0000        0.0000
       32       0.0000    0.0000    0.0000             0.0000        0.0000
       33       0.0000    0.0000    0.0000             0.0000        0.0000
       34       0.0000    0.0000    0.0000             0.0000        0.0000
       35       0.0000    0.0000    0.0000             0.0000        0.0000
       36       0.0000    0.0000    0.0000             0.0000        0.0000
       37       0.0000    0.0000    0.0000             0.0000        0.0000
       38       0.0000    0.0000    0.0000             0.0000        0.0000
       39       0.0000    0.0000    0.0000             0.0000        0.0000
       40       0.0000    0.0000    0.0000             0.0000        0.0000
       41       0.0000    0.0000    0.0000             0.0000        0.0000
       42       0.0000    0.0000    0.0000             0.0000        0.0000
       43       0.0000    0.0000    0.0000             0.0000        0.0000
       44       0.0000    0.0000    0.0000             0.0000        0.0000
       45       0.0000    0.0000    0.0000             0.0000        0.0000
       46       0.0000    0.0000    0.0000             0.0000        0.0000
       47       0.0000    0.0000    0.0000             0.0000        0.0000
       48       0.0000    0.0000    0.0000             0.0000        0.0000
       49       0.0000    0.0000    0.0000             0.0000        0.0000
       50       0.0000    0.0000    0.0000             0.0000        0.0000
       51       0.0000    0.0000    0.0000             0.0000        0.0000
       52       0.0000    0.0000    0.0000             0.0000        0.0000
       53       0.0000    0.0000    0.0000             0.0000        0.0000
       54       0.0000    0.0000    0.0000             0.0000        0.0000
       55       0.0000    0.0000    0.0000             0.0000        0.0000
       56       0.0000    0.0000    0.0000             0.0000        0.0000
       57       0.0000    0.0000    0.0000             0.0000        0.0000
       58       0.0000    0.0000    0.0000             0.0000        0.0000
       59       0.0000    0.0000    0.0000             0.0000        0.0000
       60       0.0000    0.0000    0.0000             0.0000        0.0000
       61       0.0000    0.0000    0.0000             0.0000        0.0000
       62       0.0000    0.0000    0.0000             0.0000        0.0000
       63       0.0000    0.0000    0.0000             0.0000        0.0000
       64       0.0000    0.0000    0.0000             0.0000        0.0000
-------------------------------------------------------------------------------

  Total time to end of atomic site potentials =       0.0197 s


  Equations of motion will be integrated using stochastic algorithm.

********************************************************************************
*  Molecular Dynamics                                                          *
********************************************************************************

  Microcanonical ensemble (NVE) to be used

  No. of mobile ions        =                 64

  No. of degrees of freedom =                189

  Time step                 =           0.001000 ps
  Equilibration time        =           1.000000 ps
  Production time           =           5.000000 ps
  Scaling time              =           1.000000 ps
  Scaling frequency         =           0.001000 ps
  Sampling frequency        =           0.100000 ps
  Write frequency           =           0.100000 ps
  TD-Force start time       =           0.000000 ps
  TD-Field start time       =           0.000000 ps



  Molecular dynamics equilibration :

  ** Time :            0.10000 ps :
     Properties:                   Instantaneous       Averaged
       Kinetic energy    (eV) =       0.406243          0.406243
       Potential energy  (eV) =      -2.481821         -2.481821
       Total energy      (eV) =      -2.075578         -2.075578
       Temperature       (K)  =      49.886237         49.886237
       Pressure         (GPa) =       0.142031          0.142031
  ** Time :            0.20000 ps :
     Properties:                   Instantaneous       Averaged
       Kinetic energy    (eV) =       0.361907          0.384075
       Potential energy  (eV) =      -2.439687         -2.460754
       Total energy      (eV) =      -2.077780         -2.076679
       Temperature       (K)  =      44.441875         47.164056
       Pressure         (GPa) =       0.153675          0.147853
  ** Time :            0.30000 ps :
     Properties:                   Instantaneous       Averaged
       Kinetic energy    (eV) =       0.479942          0.416031
       Potential energy  (eV) =      -2.558633         -2.493380
       Total energy      (eV) =      -2.078690         -2.077349
       Temperature       (K)  =      58.936439         51.088183
       Pressure         (GPa) =       0.123758          0.139821
  ** Time :            0.40000 ps :
     Properties:                   Instantaneous       Averaged
       Kinetic energy    (eV) =       0.701082          0.487294
       Potential energy  (eV) =      -2.781221         -2.565341
       Total energy      (eV) =      -2.080139         -2.078047
       Temperature       (K)  =      86.092155         59.839176
       Pressure         (GPa) =       0.068478          0.121985
  ** Time :            0.50000 ps :
     Properties:                   Instantaneous       Averaged
       Kinetic energy    (eV) =       0.947214          0.579278
       Potential energy  (eV) =      -3.029823         -2.658237
       Total energy      (eV) =      -2.082609         -2.078959
       Temperature       (K)  =     116.316999         71.134741
       Pressure         (GPa) =       0.007992          0.099186
  ** Time :            0.60000 ps :
     Properties:                   Instantaneous       Averaged
       Kinetic energy    (eV) =       0.891652          0.631340
       Potential energy  (eV) =      -2.974476         -2.710944
       Total energy      (eV) =      -2.082824         -2.079603
       Temperature       (K)  =     109.493955         77.527943
       Pressure         (GPa) =       0.024292          0.086704
  ** Time :            0.70000 ps :
     Properties:                   Instantaneous       Averaged
       Kinetic energy    (eV) =       0.680075          0.638302
       Potential energy  (eV) =      -2.763540         -2.718457
       Total energy      (eV) =      -2.083465         -2.080155
       Temperature       (K)  =      83.512535         78.382885
       Pressure         (GPa) =       0.079455          0.085668
  ** Time :            0.80000 ps :
     Properties:                   Instantaneous       Averaged
       Kinetic energy    (eV) =       0.710866          0.647373
       Potential energy  (eV) =      -2.794548         -2.727969
       Total energy      (eV) =      -2.083682         -2.080596
       Temperature       (K)  =      87.293665         79.496732
       Pressure         (GPa) =       0.074241          0.084240
  ** Time :            0.90000 ps :
     Properties:                   Instantaneous       Averaged
       Kinetic energy    (eV) =       0.729671          0.656517
       Potential energy  (eV) =      -2.813193         -2.737438
       Total energy      (eV) =      -2.083522         -2.080921
       Temperature       (K)  =      89.602859         80.619635
       Pressure         (GPa) =       0.068247          0.082463
  ** Time :            1.00000 ps :
     Properties:                   Instantaneous       Averaged
       Kinetic energy    (eV) =       0.678248          0.658690
       Potential energy  (eV) =      -2.761446         -2.739839
       Total energy      (eV) =      -2.083198         -2.081149
       Temperature       (K)  =      83.288129         80.886485
       Pressure         (GPa) =       0.079089          0.082126

  Molecular dynamics production :

  ** Time :            0.10000 ps :
     Properties:                   Instantaneous       Averaged
       Kinetic energy    (eV) =       0.746402          0.746402
       Potential energy  (eV) =      -2.829172         -2.829172
       Total energy      (eV) =      -2.082770         -2.082770
       Temperature       (K)  =      91.657404         91.657404
       Pressure         (GPa) =       0.068934          0.068934
  ** Time :            0.20000 ps :
     Properties:                   Instantaneous       Averaged
       Kinetic energy    (eV) =       0.740038          0.743220
       Potential energy  (eV) =      -2.822809         -2.825990
       Total energy      (eV) =      -2.082770         -2.082770
       Temperature       (K)  =      90.875974         91.266689
       Pressure         (GPa) =       0.073242          0.071088
  ** Time :            0.30000 ps :
     Properties:                   Instantaneous       Averaged
       Kinetic energy    (eV) =       0.725438          0.737293
       Potential energy  (eV) =      -2.809173         -2.820384
       Total energy      (eV) =      -2.083735         -2.083092
       Temperature       (K)  =      89.083099         90.538826
       Pressure         (GPa) =       0.073753          0.071976
  ** Time :            0.40000 ps :
     Properties:                   Instantaneous       Averaged
       Kinetic energy    (eV) =       0.822765          0.758661
       Potential energy  (eV) =      -2.905965         -2.841779
       Total energy      (eV) =      -2.083199         -2.083118
       Temperature       (K)  =     101.034776         93.162813
       Pressure         (GPa) =       0.046638          0.065642
  ** Time :            0.50000 ps :
     Properties:                   Instantaneous       Averaged
       Kinetic energy    (eV) =       0.837707          0.774470
       Potential energy  (eV) =      -2.919994         -2.857422
       Total energy      (eV) =      -2.082287         -2.082952
       Temperature       (K)  =     102.869609         95.104172
       Pressure         (GPa) =       0.041159          0.060745
  ** Time :            0.60000 ps :
     Properties:                   Instantaneous       Averaged
       Kinetic energy    (eV) =       0.722675          0.765838
       Potential energy  (eV) =      -2.805820         -2.848822
       Total energy      (eV) =      -2.083146         -2.082984
       Temperature       (K)  =      88.743746         94.044101
       Pressure         (GPa) =       0.067396          0.061854
  ** Time :            0.70000 ps :
     Properties:                   Instantaneous       Averaged
       Kinetic energy    (eV) =       0.733806          0.761262
       Potential energy  (eV) =      -2.816201         -2.844162
       Total energy      (eV) =      -2.082395         -2.082900
       Temperature       (K)  =      90.110620         93.482175
       Pressure         (GPa) =       0.063174          0.062042
  ** Time :            0.80000 ps :
     Properties:                   Instantaneous       Averaged
       Kinetic energy    (eV) =       0.809945          0.767347
       Potential energy  (eV) =      -2.891965         -2.850137
       Total energy      (eV) =      -2.082020         -2.082790
       Temperature       (K)  =      99.460393         94.229453
       Pressure         (GPa) =       0.047048          0.060168
  ** Time :            0.90000 ps :
     Properties:                   Instantaneous       Averaged
       Kinetic energy    (eV) =       0.787284          0.769562
       Potential energy  (eV) =      -2.869463         -2.852285
       Total energy      (eV) =      -2.082179         -2.082722
       Temperature       (K)  =      96.677645         94.501474
       Pressure         (GPa) =       0.054578          0.059547
  ** Time :            1.00000 ps :
     Properties:                   Instantaneous       Averaged
       Kinetic energy    (eV) =       0.789623          0.771568
       Potential energy  (eV) =      -2.871480         -2.854204
       Total energy      (eV) =      -2.081857         -2.082636
       Temperature       (K)  =      96.964941         94.747821
       Pressure         (GPa) =       0.054487          0.059041
  ** Time :            1.10000 ps :
     Properties:                   Instantaneous       Averaged
       Kinetic energy    (eV) =       0.759149          0.770439
       Potential energy  (eV) =      -2.840793         -2.852985
       Total energy      (eV) =      -2.081644         -2.082546
       Temperature       (K)  =      93.222790         94.609182
       Pressure         (GPa) =       0.063754          0.059469
  ** Time :            1.20000 ps :
     Properties:                   Instantaneous       Averaged
       Kinetic energy    (eV) =       0.676699          0.762628
       Potential energy  (eV) =      -2.759628         -2.845205
       Total energy      (eV) =      -2.082930         -2.082578
       Temperature       (K)  =      83.097918         93.649910
       Pressure         (GPa) =       0.084930          0.061591
  ** Time :            1.30000 ps :
     Properties:                   Instantaneous       Averaged
       Kinetic energy    (eV) =       0.721018          0.759427
       Potential energy  (eV) =      -2.804057         -2.842040
       Total energy      (eV) =      -2.083040         -2.082613
       Temperature       (K)  =      88.540244         93.256858
       Pressure         (GPa) =       0.073108          0.062477
  ** Time :            1.40000 ps :
     Properties:                   Instantaneous       Averaged
       Kinetic energy    (eV) =       0.745122          0.758405
       Potential energy  (eV) =      -2.827786         -2.841022
       Total energy      (eV) =      -2.082664         -2.082617
       Temperature       (K)  =      91.500249         93.131386
       Pressure         (GPa) =       0.063878          0.062577
  ** Time :            1.50000 ps :
     Properties:                   Instantaneous       Averaged
       Kinetic energy    (eV) =       0.746828          0.757633
       Potential energy  (eV) =      -2.829867         -2.840278
       Total energy      (eV) =      -2.083039         -2.082645
       Temperature       (K)  =      91.709790         93.036613
       Pressure         (GPa) =       0.063978          0.062670
  ** Time :            1.60000 ps :
     Properties:                   Instantaneous       Averaged
       Kinetic energy    (eV) =       0.756769          0.757579
       Potential energy  (eV) =      -2.840184         -2.840272
       Total energy      (eV) =      -2.083415         -2.082693
       Temperature       (K)  =      92.930481         93.029980
       Pressure         (GPa) =       0.063387          0.062715
  ** Time :            1.70000 ps :
     Properties:                   Instantaneous       Averaged
       Kinetic energy    (eV) =       0.747011          0.756958
       Potential energy  (eV) =      -2.830855         -2.839718
       Total energy      (eV) =      -2.083844         -2.082761
       Temperature       (K)  =      91.732217         92.953641
       Pressure         (GPa) =       0.067100          0.062973
  ** Time :            1.80000 ps :
     Properties:                   Instantaneous       Averaged
       Kinetic energy    (eV) =       0.754183          0.756803
       Potential energy  (eV) =      -2.837865         -2.839615
       Total energy      (eV) =      -2.083682         -2.082812
       Temperature       (K)  =      92.612937         92.934713
       Pressure         (GPa) =       0.066690          0.063180
  ** Time :            1.90000 ps :
     Properties:                   Instantaneous       Averaged
       Kinetic energy    (eV) =       0.772678          0.757639
       Potential energy  (eV) =      -2.855773         -2.840466
       Total energy      (eV) =      -2.083096         -2.082827
       Temperature       (K)  =      94.884069         93.037311
       Pressure         (GPa) =       0.065055          0.063278
  ** Time :            2.00000 ps :
     Properties:                   Instantaneous       Averaged
       Kinetic energy    (eV) =       0.768938          0.758204
       Potential energy  (eV) =      -2.851657         -2.841025
       Total energy      (eV) =      -2.082719         -2.082822
       Temperature       (K)  =      94.424836         93.106687
       Pressure         (GPa) =       0.067786          0.063504
  ** Time :            2.10000 ps :
     Properties:                   Instantaneous       Averaged
       Kinetic energy    (eV) =       0.769566          0.758745
       Potential energy  (eV) =      -2.852335         -2.841564
       Total energy      (eV) =      -2.082770         -2.082819
       Temperature       (K)  =      94.501924         93.173127
       Pressure         (GPa) =       0.066071          0.063626
  ** Time :            2.20000 ps :
     Properties:                   Instantaneous       Averaged
       Kinetic energy    (eV) =       0.794832          0.760385
       Potential energy  (eV) =      -2.877655         -2.843204
       Total energy      (eV) =      -2.082823         -2.082819
       Temperature       (K)  =      97.604536         93.374554
       Pressure         (GPa) =       0.057322          0.063339
  ** Time :            2.30000 ps :
     Properties:                   Instantaneous       Averaged
       Kinetic energy    (eV) =       0.845358          0.764080
       Potential energy  (eV) =      -2.927004         -2.846848
       Total energy      (eV) =      -2.081646         -2.082768
       Temperature       (K)  =     103.809070         93.828229
       Pressure         (GPa) =       0.044971          0.062541
  ** Time :            2.40000 ps :
     Properties:                   Instantaneous       Averaged
       Kinetic energy    (eV) =       0.751373          0.763550
       Potential energy  (eV) =      -2.832266         -2.846240
       Total energy      (eV) =      -2.080893         -2.082690
       Temperature       (K)  =      92.267833         93.763213
       Pressure         (GPa) =       0.065867          0.062679
  ** Time :            2.50000 ps :
     Properties:                   Instantaneous       Averaged
       Kinetic energy    (eV) =       0.762055          0.763490
       Potential energy  (eV) =      -2.844185         -2.846158
       Total energy      (eV) =      -2.082130         -2.082668
       Temperature       (K)  =      93.579623         93.755869
       Pressure         (GPa) =       0.064347          0.062746
  ** Time :            2.60000 ps :
     Properties:                   Instantaneous       Averaged
       Kinetic energy    (eV) =       0.701555          0.761108
       Potential energy  (eV) =      -2.783737         -2.843757
       Total energy      (eV) =      -2.082182         -2.082649
       Temperature       (K)  =      86.150311         93.463348
       Pressure         (GPa) =       0.079876          0.063405
  ** Time :            2.70000 ps :
     Properties:                   Instantaneous       Averaged
       Kinetic energy    (eV) =       0.718430          0.759528
       Potential energy  (eV) =      -2.799378         -2.842114
       Total energy      (eV) =      -2.080948         -2.082586
       Temperature       (K)  =      88.222477         93.269241
       Pressure         (GPa) =       0.078390          0.063960
  ** Time :            2.80000 ps :
     Properties:                   Instantaneous       Averaged
       Kinetic energy    (eV) =       0.770771          0.759929
       Potential energy  (eV) =      -2.852310         -2.842478
       Total energy      (eV) =      -2.081539         -2.082549
       Temperature       (K)  =      94.649912         93.318551
       Pressure         (GPa) =       0.066556          0.064053
  ** Time :            2.90000 ps :
     Properties:                   Instantaneous       Averaged
       Kinetic energy    (eV) =       0.755580          0.759779
       Potential energy  (eV) =      -2.836743         -2.842280
       Total energy      (eV) =      -2.081163         -2.082501
       Temperature       (K)  =      92.784453         93.300134
       Pressure         (GPa) =       0.069783          0.064250
  ** Time :            3.00000 ps :
     Properties:                   Instantaneous       Averaged
       Kinetic energy    (eV) =       0.744099          0.759257
       Potential energy  (eV) =      -2.825475         -2.841720
       Total energy      (eV) =      -2.081376         -2.082463
       Temperature       (K)  =      91.374592         93.235949
       Pressure         (GPa) =       0.071029          0.064476
  ** Time :            3.10000 ps :
     Properties:                   Instantaneous       Averaged
       Kinetic energy    (eV) =       0.737324          0.758549
       Potential energy  (eV) =      -2.819772         -2.841012
       Total energy      (eV) =      -2.082449         -2.082463
       Temperature       (K)  =      90.542624         93.149068
       Pressure         (GPa) =       0.070782          0.064680
  ** Time :            3.20000 ps :
     Properties:                   Instantaneous       Averaged
       Kinetic energy    (eV) =       0.772165          0.758975
       Potential energy  (eV) =      -2.855204         -2.841455
       Total energy      (eV) =      -2.083039         -2.082481
       Temperature       (K)  =      94.821091         93.201318
       Pressure         (GPa) =       0.062197          0.064602
  ** Time :            3.30000 ps :
     Properties:                   Instantaneous       Averaged
       Kinetic energy    (eV) =       0.782156          0.759677
       Potential energy  (eV) =      -2.866000         -2.842199
       Total energy      (eV) =      -2.083843         -2.082522
       Temperature       (K)  =      96.048033         93.287582
       Pressure         (GPa) =       0.061503          0.064508
  ** Time :            3.40000 ps :
     Properties:                   Instantaneous       Averaged
       Kinetic energy    (eV) =       0.789223          0.760546
       Potential energy  (eV) =      -2.873282         -2.843113
       Total energy      (eV) =      -2.084059         -2.082567
       Temperature       (K)  =      96.915794         93.394294
       Pressure         (GPa) =       0.061742          0.064427
  ** Time :            3.50000 ps :
     Properties:                   Instantaneous       Averaged
       Kinetic energy    (eV) =       0.698219          0.758765
       Potential energy  (eV) =      -2.781204         -2.841345
       Total energy      (eV) =      -2.082984         -2.082579
       Temperature       (K)  =      85.740661         93.175619
       Pressure         (GPa) =       0.084793          0.065009
  ** Time :            3.60000 ps :
     Properties:                   Instantaneous       Averaged
       Kinetic energy    (eV) =       0.672842          0.756378
       Potential energy  (eV) =      -2.755560         -2.838962
       Total energy      (eV) =      -2.082718         -2.082583
       Temperature       (K)  =      82.624374         92.882529
       Pressure         (GPa) =       0.092992          0.065786
  ** Time :            3.70000 ps :
     Properties:                   Instantaneous       Averaged
       Kinetic energy    (eV) =       0.653343          0.753594
       Potential energy  (eV) =      -2.736168         -2.836183
       Total energy      (eV) =      -2.082825         -2.082590
       Temperature       (K)  =      80.229904         92.540566
       Pressure         (GPa) =       0.099045          0.066685
  ** Time :            3.80000 ps :
     Properties:                   Instantaneous       Averaged
       Kinetic energy    (eV) =       0.703997          0.752289
       Potential energy  (eV) =      -2.785855         -2.834859
       Total energy      (eV) =      -2.081858         -2.082570
       Temperature       (K)  =      86.450082         92.380290
       Pressure         (GPa) =       0.087147          0.067223
  ** Time :            3.90000 ps :
     Properties:                   Instantaneous       Averaged
       Kinetic energy    (eV) =       0.810144          0.753772
       Potential energy  (eV) =      -2.891951         -2.836323
       Total energy      (eV) =      -2.081807         -2.082551
       Temperature       (K)  =      99.484938         92.562461
       Pressure         (GPa) =       0.061264          0.067071
  ** Time :            4.00000 ps :
     Properties:                   Instantaneous       Averaged
       Kinetic energy    (eV) =       0.755056          0.753804
       Potential energy  (eV) =      -2.834984         -2.836289
       Total energy      (eV) =      -2.079928         -2.082485
       Temperature       (K)  =      92.720158         92.566403
       Pressure         (GPa) =       0.073702          0.067236
  ** Time :            4.10000 ps :
     Properties:                   Instantaneous       Averaged
       Kinetic energy    (eV) =       0.698537          0.752456
       Potential energy  (eV) =      -2.778786         -2.834887
       Total energy      (eV) =      -2.080249         -2.082431
       Temperature       (K)  =      85.779663         92.400873
       Pressure         (GPa) =       0.086195          0.067699
  ** Time :            4.20000 ps :
     Properties:                   Instantaneous       Averaged
       Kinetic energy    (eV) =       0.799368          0.753573
       Potential energy  (eV) =      -2.881499         -2.835997
       Total energy      (eV) =      -2.082131         -2.082424
       Temperature       (K)  =      98.161631         92.538034
       Pressure         (GPa) =       0.063157          0.067591
  ** Time :            4.30000 ps :
     Properties:                   Instantaneous       Averaged
       Kinetic energy    (eV) =       0.749822          0.753486
       Potential energy  (eV) =      -2.833235         -2.835932
       Total energy      (eV) =      -2.083413         -2.082447
       Temperature       (K)  =      92.077367         92.527321
       Pressure         (GPa) =       0.071310          0.067677
  ** Time :            4.40000 ps :
     Properties:                   Instantaneous       Averaged
       Kinetic energy    (eV) =       0.786045          0.754226
       Potential energy  (eV) =      -2.868172         -2.836665
       Total energy      (eV) =      -2.082127         -2.082439
       Temperature       (K)  =      96.525563         92.618190
       Pressure         (GPa) =       0.059028          0.067481
  ** Time :            4.50000 ps :
     Properties:                   Instantaneous       Averaged
       Kinetic energy    (eV) =       0.832872          0.755974
       Potential energy  (eV) =      -2.915268         -2.838412
       Total energy      (eV) =      -2.082397         -2.082438
       Temperature       (K)  =     102.275812         92.832804
       Pressure         (GPa) =       0.045668          0.066996
  ** Time :            4.60000 ps :
     Properties:                   Instantaneous       Averaged
       Kinetic energy    (eV) =       0.782608          0.756553
       Potential energy  (eV) =      -2.866129         -2.839014
       Total energy      (eV) =      -2.083522         -2.082462
       Temperature       (K)  =      96.103469         92.903905
       Pressure         (GPa) =       0.058485          0.066811
  ** Time :            4.70000 ps :
     Properties:                   Instantaneous       Averaged
       Kinetic energy    (eV) =       0.735456          0.756104
       Potential energy  (eV) =      -2.818817         -2.838585
       Total energy      (eV) =      -2.083361         -2.082481
       Temperature       (K)  =      90.313265         92.848785
       Pressure         (GPa) =       0.073741          0.066958
  ** Time :            4.80000 ps :
     Properties:                   Instantaneous       Averaged
       Kinetic energy    (eV) =       0.761788          0.756222
       Potential energy  (eV) =      -2.845471         -2.838728
       Total energy      (eV) =      -2.083683         -2.082506
       Temperature       (K)  =      93.546846         92.863328
       Pressure         (GPa) =       0.068067          0.066981
  ** Time :            4.90000 ps :
     Properties:                   Instantaneous       Averaged
       Kinetic energy    (eV) =       0.802642          0.757169
       Potential energy  (eV) =      -2.885950         -2.839692
       Total energy      (eV) =      -2.083308         -2.082522
       Temperature       (K)  =      98.563607         92.979660
       Pressure         (GPa) =       0.055165          0.066740
  ** Time :            5.00000 ps :
     Properties:                   Instantaneous       Averaged
       Kinetic energy    (eV) =       0.803286          0.758092
       Potential energy  (eV) =      -2.886273         -2.840624
       Total energy      (eV) =      -2.082987         -2.082532
       Temperature       (K)  =      98.642757         93.092922
       Pressure         (GPa) =       0.053121          0.066468

  Peak dynamic memory used =       2.00 MB 


  Timing analysis for GULP :

--------------------------------------------------------------------------------
  Task / Subroutine                                          Time (Seconds)
--------------------------------------------------------------------------------
  Calculation of real space energy and derivatives                8.4649
  Calculation of matrix inversion                                 0.0055
  Molecular dynamics - update of geometry                         0.0371
  Molecular dynamics - predictor                                  0.0077
  Molecular dynamics - corrector                                  0.0081
  Molecular dynamics - velocity correction                        0.0071
--------------------------------------------------------------------------------
  Total CPU time                                                  8.6046
--------------------------------------------------------------------------------


  GULP trajectory file written as Ar_rho_0.0207125_N=64_cubic_TP.trg


  Job Finished at 16:37.00 30th July       2022                               

